 vasp.5.4.4.18Apr17-6-g9f103f2a35 (build Apr 26 2024 17:03:19) complex          
  
 executed on           IFC91_ompi date 2026.01.12  15:47:15
 running on   48 total cores
 distrk:  each k-point on   48 cores,    1 groups
 distr:  one band on NCORES_PER_BAND=  12 cores,    4 groups


--------------------------------------------------------------------------------------------------------


 INCAR:
 POTCAR:    PAW_PBE Gd 23Dec2003                  
 POTCAR:    PAW_PBE Au 04Oct2007                  
 POTCAR:    PAW_PBE Ge 05Jan2001                  
 POTCAR:    PAW_PBE Gd 23Dec2003                  
   VRHFIN =Gd : [core=Xe4]                                                      
   LEXCH  = PE                                                                  
   EATOM  =  3047.6032 eV,  223.9925 Ry                                         
                                                                                
   TITEL  = PAW_PBE Gd 23Dec2003                                                
   LULTRA =        F    use ultrasoft PP ?                                      
   IUNSCR =        1    unscreen: 0-lin 1-nonlin 2-no                           
   RPACOR =    2.300    partial core radius                                     
   POMASS =  157.250; ZVAL   =   18.000    mass and valenz                      
   RCORE  =    2.800    outmost cutoff radius                                   
   RWIGS  =    2.800; RWIGS  =    1.482    wigner-seitz radius (au A)           
   ENMAX  =  256.472; ENMIN  =  192.354 eV                                      
   RCLOC  =    2.316    cutoff for local pot                                    
   LCOR   =        T    correct aug charges                                     
   LPAW   =        T    paw PP                                                  
   EAUG   =  537.243                                                            
   DEXC   =    0.000                                                            
   RMAX   =    2.857    core radius for proj-oper                               
   RAUG   =    1.300    factor for augmentation sphere                          
   RDEP   =    2.921    radius for radial grids                                 
   RDEPT  =    2.247    core radius for aug-charge                              
                                                                                
   Atomic configuration                                                         
   14 entries                                                                   
     n  l   j            E        occ.                                          
     1  0  0.50    -50087.2354   2.0000                                         
     2  0  0.50     -8269.2182   2.0000                                         
     2  1  1.50     -7357.3672   6.0000                                         
     3  0  0.50     -1833.2681   2.0000                                         
     3  1  1.50     -1550.9376   6.0000                                         
     3  2  2.50     -1178.7204  10.0000                                         
     4  0  0.50      -369.2978   2.0000                                         
     4  1  1.50      -276.2601   6.0000                                         
     4  2  2.50      -147.6611  10.0000                                         
     5  0  0.50       -49.7260   2.0000                                         
     6  0  0.50        -4.1254   2.0000                                         
     5  1  1.50       -27.2538   6.0000                                         
     5  2  2.50        -2.5337   1.0000                                         
     4  3  2.50        -8.7140   7.0000                                         
   Description                                                                  
     l       E           TYP  RCUT    TYP  RCUT                                 
     0    -49.7259557     23  2.400                                             
     0     -4.1254107     23  2.400                                             
     1    -27.2537518     23  2.400                                             
     1     20.4087390     23  2.400                                             
     2     -2.5337329     23  2.500                                             
     2     13.6058260     23  2.500                                             
     3     -8.7140389     23  2.800                                             
     3     -9.5240782     23  2.800                                             
  local pseudopotential read in
  partial core-charges read in
  partial kinetic energy density read in
  atomic valenz-charges read in
  non local Contribution for L=           0  read in
    real space projection operators read in
  non local Contribution for L=           0  read in
    real space projection operators read in
  non local Contribution for L=           1  read in
    real space projection operators read in
  non local Contribution for L=           1  read in
    real space projection operators read in
  non local Contribution for L=           2  read in
    real space projection operators read in
  non local Contribution for L=           2  read in
    real space projection operators read in
  non local Contribution for L=           3  read in
    real space projection operators read in
  non local Contribution for L=           3  read in
    real space projection operators read in
    PAW grid and wavefunctions read in
 
   number of l-projection  operators is LMAX  =           8
   number of lm-projection operators is LMMAX =          32
 
 POTCAR:    PAW_PBE Au 04Oct2007                  
   VRHFIN =Au: s1d10                                                            
   LEXCH  = PE                                                                  
   EATOM  =   926.0867 eV,   68.0654 Ry                                         
                                                                                
   TITEL  = PAW_PBE Au 04Oct2007                                                
   LULTRA =        F    use ultrasoft PP ?                                      
   IUNSCR =        1    unscreen: 0-lin 1-nonlin 2-no                           
   RPACOR =    2.330    partial core radius                                     
   POMASS =  196.966; ZVAL   =   11.000    mass and valenz                      
   RCORE  =    2.500    outmost cutoff radius                                   
   RWIGS  =    2.840; RWIGS  =    1.503    wigner-seitz radius (au A)           
   ENMAX  =  229.943; ENMIN  =  172.457 eV                                      
   ICORE  =        3    local potential                                         
   LCOR   =        T    correct aug charges                                     
   LPAW   =        T    paw PP                                                  
   EAUG   =  356.670                                                            
   DEXC   =    0.000                                                            
   RMAX   =    2.562    core radius for proj-oper                               
   RAUG   =    1.300    factor for augmentation sphere                          
   RDEP   =    2.598    radius for radial grids                                 
   RDEPT  =    2.193    core radius for aug-charge                              
                                                                                
   Atomic configuration                                                         
   16 entries                                                                   
     n  l   j            E        occ.                                          
     1  0  0.50    -80748.5001   2.0000                                         
     2  0  0.50    -14244.7466   2.0000                                         
     2  1  1.50    -12310.9591   6.0000                                         
     3  0  0.50     -3362.1768   2.0000                                         
     3  1  1.50     -2801.5463   6.0000                                         
     3  2  2.50     -2203.8206  10.0000                                         
     4  0  0.50      -729.8168   2.0000                                         
     4  1  1.50      -546.0527   6.0000                                         
     4  2  2.50      -325.7302  10.0000                                         
     4  3  3.50       -81.1472  14.0000                                         
     5  0  0.50      -108.3201   2.0000                                         
     5  1  1.50       -59.7479   6.0000                                         
     5  2  2.50        -6.8783  10.0000                                         
     6  0  0.50        -5.7602   1.0000                                         
     6  1  1.50        -6.8029   0.0000                                         
     5  3  2.50        -1.3606   0.0000                                         
   Description                                                                  
     l       E           TYP  RCUT    TYP  RCUT                                 
     2     -6.8782861     23  2.500                                             
     2     -8.2388687     23  2.500                                             
     0     -5.7601759     23  2.500                                             
     0     -0.8493231     23  2.500                                             
     1     -2.7211652     23  2.500                                             
     1     27.2116520     23  2.500                                             
     3     -1.3605826     23  2.500                                             
  local pseudopotential read in
  partial core-charges read in
  partial kinetic energy density read in
  atomic valenz-charges read in
  non local Contribution for L=           2  read in
    real space projection operators read in
  non local Contribution for L=           2  read in
    real space projection operators read in
  non local Contribution for L=           0  read in
    real space projection operators read in
  non local Contribution for L=           0  read in
    real space projection operators read in
  non local Contribution for L=           1  read in
    real space projection operators read in
  non local Contribution for L=           1  read in
    real space projection operators read in
    PAW grid and wavefunctions read in
 
   number of l-projection  operators is LMAX  =           6
   number of lm-projection operators is LMMAX =          18
 
 POTCAR:    PAW_PBE Ge 05Jan2001                  
   VRHFIN =Ge: s2p2                                                             
   LEXCH  = PE                                                                  
   EATOM  =   104.9960 eV,    7.7170 Ry                                         
                                                                                
   TITEL  = PAW_PBE Ge 05Jan2001                                                
   LULTRA =        F    use ultrasoft PP ?                                      
   IUNSCR =        1    unscreen: 0-lin 1-nonlin 2-no                           
   RPACOR =    2.170    partial core radius                                     
   POMASS =   72.610; ZVAL   =    4.000    mass and valenz                      
   RCORE  =    2.300    outmost cutoff radius                                   
   RWIGS  =    2.300; RWIGS  =    1.217    wigner-seitz radius (au A)           
   ENMAX  =  173.807; ENMIN  =  130.355 eV                                      
   ICORE  =        3    local potential                                         
   LCOR   =        T    correct aug charges                                     
   LPAW   =        T    paw PP                                                  
   EAUG   =  385.843                                                            
   DEXC   =    0.000                                                            
   RMAX   =    2.342    core radius for proj-oper                               
   RAUG   =    1.300    factor for augmentation sphere                          
   RDEP   =    2.318    radius for radial grids                                 
   RDEPT  =    2.103    core radius for aug-charge                              
                                                                                
   Atomic configuration                                                         
   10 entries                                                                   
     n  l   j            E        occ.                                          
     1  0  0.50    -10959.8463   2.0000                                         
     2  0  0.50     -1371.6056   2.0000                                         
     2  1  1.50     -1198.4791   6.0000                                         
     3  0  0.50      -168.4733   2.0000                                         
     3  1  1.50      -115.6019   6.0000                                         
     3  2  2.50       -29.3106  10.0000                                         
     4  0  0.50       -11.7309   2.0000                                         
     4  1  0.50        -3.8952   2.0000                                         
     4  2  1.50        -4.0817   0.0000                                         
     4  3  2.50        -4.0817   0.0000                                         
   Description                                                                  
     l       E           TYP  RCUT    TYP  RCUT                                 
     0    -11.7309493     23  2.300                                             
     0     -7.4578696     23  2.300                                             
     1     -3.8952261     23  2.300                                             
     1      6.1178114     23  2.300                                             
     2     -4.0817478     23  2.300                                             
     3     -1.3605826      7  2.300                                             
  local pseudopotential read in
  partial core-charges read in
  partial kinetic energy density read in
  atomic valenz-charges read in
  non local Contribution for L=           0  read in
    real space projection operators read in
  non local Contribution for L=           0  read in
    real space projection operators read in
  non local Contribution for L=           1  read in
    real space projection operators read in
  non local Contribution for L=           1  read in
    real space projection operators read in
  non local Contribution for L=           2  read in
    real space projection operators read in
    PAW grid and wavefunctions read in
 
   number of l-projection  operators is LMAX  =           5
   number of lm-projection operators is LMMAX =          13
 
  PAW_PBE Gd 23Dec2003                  :
 energy of atom  1       EATOM=-3047.6032
 kinetic energy error for atom=    0.0011 (will be added to EATOM!!)
  PAW_PBE Au 04Oct2007                  :
 energy of atom  2       EATOM= -926.0867
 kinetic energy error for atom=    0.0013 (will be added to EATOM!!)
  PAW_PBE Ge 05Jan2001                  :
 energy of atom  3       EATOM= -104.9960
 kinetic energy error for atom=    0.0001 (will be added to EATOM!!)
 
 
 POSCAR: gadolinium gold germanide (1/1/1)       
  positions in direct lattice
  velocities in cartesian coordinates
  No initial velocities read in
 exchange correlation table for  LEXCH =        8
   RHO(1)=    0.500       N(1)  =     2000
   RHO(2)=  100.500       N(2)  =     4000
 


--------------------------------------------------------------------------------------------------------


 ion  position               nearest neighbor table
   1  0.000  0.000  0.000-   5 3.00   5 3.00   5 3.00   3 3.03   3 3.03   3 3.03   4 3.29   4 3.29
                             4 3.29
   2  0.000  0.000  0.500-   6 3.00   6 3.00   6 3.00   4 3.03   4 3.03   4 3.03   3 3.29   3 3.29
                             3 3.29
   3  0.667  0.333  0.780-   6 2.61   6 2.61   6 2.61   1 3.03   1 3.03   1 3.03   5 3.20   2 3.29
                             2 3.29   2 3.29
   4  0.333  0.667  0.280-   5 2.61   5 2.61   5 2.61   2 3.03   2 3.03   2 3.03   6 3.20   1 3.29
                             1 3.29   1 3.29
   5  0.667  0.333  0.211-   4 2.61   4 2.61   4 2.61   1 3.00   1 3.00   1 3.00   3 3.20
   6  0.333  0.667  0.711-   3 2.61   3 2.61   3 2.61   2 3.00   2 3.00   2 3.00   4 3.20
 
  LATTYP: Found a hexagonal cell.
 ALAT       =     4.4279899597
 C/A-ratio  =     1.6751619183
  
  Lattice vectors:
  
 A1 = (   4.4279899597,   0.0000000000,   0.0000000000)
 A2 = (  -2.2139949799,   3.8347517928,   0.0000000000)
 A3 = (   0.0000000000,   0.0000000000,   7.4176001549)


Analysis of symmetry for initial positions (statically):
=====================================================================
 Subroutine PRICEL returns:
 Original cell was already a primitive cell.
 

 Routine SETGRP: Setting up the symmetry group for a 
 hexagonal supercell.


 Subroutine GETGRP returns: Found 12 space group operations
 (whereof  6 operations were pure point group operations)
 out of a pool of 24 trial point group operations.


The static configuration has the point symmetry C_3v.
 The point group associated with its full space group is C_6v.


Analysis of symmetry for dynamics (positions and initial velocities):
=====================================================================
 Subroutine PRICEL returns:
 Original cell was already a primitive cell.
 

 Routine SETGRP: Setting up the symmetry group for a 
 hexagonal supercell.


 Subroutine GETGRP returns: Found 12 space group operations
 (whereof  6 operations were pure point group operations)
 out of a pool of 24 trial point group operations.


The dynamic configuration has the point symmetry C_3v.
 The point group associated with its full space group is C_6v.


Analysis of structural, dynamic, and magnetic symmetry:
=====================================================================
 Subroutine PRICEL returns:
 Original cell was already a primitive cell.
 

 Routine SETGRP: Setting up the symmetry group for a 
 hexagonal supercell.


 Subroutine GETGRP returns: Found 12 space group operations
 (whereof  6 operations were pure point group operations)
 out of a pool of 24 trial point group operations.


The magnetic configuration has the point symmetry C_3v.
 The point group associated with its full space group is C_6v.


 Subroutine INISYM returns: Found 12 space group operations
 (whereof  6 operations are pure point group operations),
 and found     1 'primitive' translations

 
 
 KPOINTS: Obtained from Transformation Matrix: 1.0
  interpolating k-points between supplied coordinates
  k-points in reciprocal lattice
Space group operators:
 irot       det(A)        alpha          n_x          n_y          n_z        tau_x        tau_y        tau_z
    1     1.000000     0.000000     1.000000     0.000000     0.000000     0.000000     0.000000     0.000000
    2     1.000000   120.000000     0.000000     0.000000    -1.000000     0.000000     0.000000     0.000000
    3     1.000000   120.000000     0.000000     0.000000     1.000000     0.000000     0.000000     0.000000
    4    -1.000000   180.000000     1.000000     0.000000     0.000000     0.000000     0.000000     0.000000
    5    -1.000000   180.000000     0.500000    -0.866025     0.000000     0.000000     0.000000     0.000000
    6    -1.000000   180.000000    -0.500000    -0.866025     0.000000     0.000000     0.000000     0.000000
    7     1.000000    60.000000     0.000000     0.000000    -1.000000     0.000000     0.000000     0.500000
    8     1.000000   180.000000     0.000000     0.000000     1.000000     0.000000     0.000000     0.500000
    9     1.000000    60.000000     0.000000     0.000000     1.000000     0.000000     0.000000     0.500000
   10    -1.000000   180.000000     0.866025    -0.500000     0.000000     0.000000     0.000000     0.500000
   11    -1.000000   180.000000     0.000000     1.000000     0.000000     0.000000     0.000000     0.500000
   12    -1.000000   180.000000     0.866025     0.500000     0.000000     0.000000     0.000000     0.500000


--------------------------------------------------------------------------------------------------------




 Dimension of arrays:
   k-points           NKPTS =    950   k-points in BZ     NKDIM =    950   number of bands    NBANDS=     40
   number of dos      NEDOS =   2000   number of ions     NIONS =      6
   non local maximal  LDIM  =      8   non local SUM 2l+1 LMDIM =     32
   total plane-waves  NPLWV =  37632
   max r-space proj   IRMAX =      1   max aug-charges    IRDMAX=  18469
   dimension x,y,z NGX =    28 NGY =   28 NGZ =   48
   dimension x,y,z NGXF=    56 NGYF=   56 NGZF=   96
   support grid    NGXF=    56 NGYF=   56 NGZF=   96
   ions per type =               2   2   2
   NGX,Y,Z   is equivalent  to a cutoff of  10.51, 10.51, 10.76 a.u.
   NGXF,Y,Z  is equivalent  to a cutoff of  21.02, 21.02, 21.52 a.u.

 SYSTEM =  SrVO3                                   
 POSCAR =  gadolinium gold germanide (1/1/1)       

 Startparameter for this run:
   NWRITE =      2    write-flag & timer
   PREC   = normal    normal or accurate (medium, high low for compatibility)
   ISTART =      0    job   : 0-new  1-cont  2-samecut
   ICHARG =      2    charge: 1-file 2-atom 10-const
   ISPIN  =      2    spin polarized calculation?
   LNONCOLLINEAR =      F non collinear calculations
   LSORBIT =      F    spin-orbit coupling
   INIWAV =      1    electr: 0-lowe 1-rand  2-diag
   LASPH  =      F    aspherical Exc in radial PAW
   METAGGA=      F    non-selfconsistent MetaGGA calc.

 Electronic Relaxation 1
   ENCUT  =  600.0 eV  44.10 Ry    6.64 a.u.   8.84  8.84 14.81*2*pi/ulx,y,z
   ENINI  =  600.0     initial cutoff
   ENAUG  =  537.2 eV  augmentation charge cutoff
   NELM   =     60;   NELMIN=  2; NELMDL= -5     # of ELM steps 
   EDIFF  = 0.1E-07   stopping-criterion for ELM
   LREAL  =      F    real-space projection
   NLSPLINE    = F    spline interpolate recip. space projectors
   LCOMPAT=      F    compatible to vasp.4.4
   GGA_COMPAT  = T    GGA compatible to vasp.4.4-vasp.4.6
   LMAXPAW     = -100 max onsite density
   LMAXMIX     =    6 max onsite mixed and CHGCAR
   VOSKOWN=      0    Vosko Wilk Nusair interpolation
   ROPT   =    0.00000   0.00000   0.00000
 Ionic relaxation
   EDIFFG = 0.1E-06   stopping-criterion for IOM
   NSW    =      0    number of steps for IOM
   NBLOCK =      1;   KBLOCK =      1    inner block; outer block 
   IBRION =     -1    ionic relax: 0-MD 1-quasi-New 2-CG
   NFREE  =      0    steps in history (QN), initial steepest desc. (CG)
   ISIF   =      2    stress and relaxation
   IWAVPR =     10    prediction:  0-non 1-charg 2-wave 3-comb
   ISYM   =      2    0-nonsym 1-usesym 2-fastsym
   LCORR  =      T    Harris-Foulkes like correction to forces

   POTIM  = 0.5000    time-step for ionic-motion
   TEIN   =    0.0    initial temperature
   TEBEG  =    0.0;   TEEND  =   0.0 temperature during run
   SMASS  =  -3.00    Nose mass-parameter (am)
   estimated Nose-frequenzy (Omega)   =  0.10E-29 period in steps =****** mass=  -0.448E-27a.u.
   SCALEE = 1.0000    scale energy and forces
   NPACO  =    256;   APACO  = 16.0  distance and # of slots for P.C.
   PSTRESS=    0.0 pullay stress

  Mass of Ions in am
   POMASS = 157.25196.97 72.61
  Ionic Valenz
   ZVAL   =  18.00 11.00  4.00
  Atomic Wigner-Seitz radii
   RWIGS  =  -1.00 -1.00 -1.00
  virtual crystal weights 
   VCA    =   1.00  1.00  1.00
   NELECT =      66.0000    total number of electrons
   NUPDOWN=      -1.0000    fix difference up-down

 DOS related values:
   EMIN   = -15.00;   EMAX   = 15.00  energy-range for DOS
   EFERMI =   0.00
   ISMEAR =     0;   SIGMA  =   0.20  broadening in eV -4-tet -1-fermi 0-gaus

 Electronic relaxation 2 (details)
   IALGO  =     38    algorithm
   LDIAG  =      T    sub-space diagonalisation (order eigenvalues)
   LSUBROT=      F    optimize rotation matrix (better conditioning)
   TURBO    =      0    0=normal 1=particle mesh
   IRESTART =      0    0=no restart 2=restart with 2 vectors
   NREBOOT  =      0    no. of reboots
   NMIN     =      0    reboot dimension
   EREF     =   0.00    reference energy to select bands
   IMIX   =      4    mixing-type and parameters
     AMIX     =   0.40;   BMIX     =  1.00
     AMIX_MAG =   1.60;   BMIX_MAG =  1.00
     AMIN     =   0.10
     WC   =   100.;   INIMIX=   1;  MIXPRE=   1;  MAXMIX= -45

 Intra band minimization:
   WEIMIN = 0.0000     energy-eigenvalue tresh-hold
   EBREAK =  0.63E-10  absolut break condition
   DEPER  =   0.30     relativ break condition  

   TIME   =   0.40     timestep for ELM

  volume/ion in A,a.u.               =      20.99       141.66
  Fermi-wavevector in a.u.,A,eV,Ry     =   1.319837  2.494131 23.700945  1.741970
  Thomas-Fermi vector in A             =   2.449707
 
 Write flags
   LWAVE        =      F    write WAVECAR
   LDOWNSAMPLE  =      F    k-point downsampling of WAVECAR
   LCHARG       =      T    write CHGCAR
   LVTOT        =      F    write LOCPOT, total local potential
   LVHAR        =      F    write LOCPOT, Hartree potential only
   LELF         =      F    write electronic localiz. function (ELF)
   LORBIT       =     11    0 simple, 1 ext, 2 COOP (PROOUT), +10 PAW based schemes


 Dipole corrections
   LMONO  =      F    monopole corrections only (constant potential shift)
   LDIPOL =      F    correct potential (dipole corrections)
   IDIPOL =      0    1-x, 2-y, 3-z, 4-all directions 
   EPSILON=  1.0000000 bulk dielectric constant

 LDA+U is selected, type is set to LDAUTYPE =  2
   angular momentum for each species LDAUL =     3   -1   -1
   U (eV)           for each species LDAUU =   6.0  0.0  0.0
   J (eV)           for each species LDAUJ =   0.0  0.0  0.0
 Exchange correlation treatment:
   GGA     =    --    GGA type
   LEXCH   =     8    internal setting for exchange type
   VOSKOWN=      0    Vosko Wilk Nusair interpolation
   LHFCALC =     F    Hartree Fock is set to
   LHFONE  =     F    Hartree Fock one center treatment
   AEXX    =    0.0000 exact exchange contribution

 Linear response parameters
   LEPSILON=     F    determine dielectric tensor
   LRPA    =     F    only Hartree local field effects (RPA)
   LNABLA  =     F    use nabla operator in PAW spheres
   LVEL    =     F    velocity operator in full k-point grid
   LINTERFAST=   F  fast interpolation
   KINTER  =     0    interpolate to denser k-point grid
   CSHIFT  =0.1000    complex shift for real part using Kramers Kronig
   OMEGAMAX=  -1.0    maximum frequency
   DEG_THRESHOLD= 0.2000000E-02 threshold for treating states as degnerate
   RTIME   =   -0.100 relaxation time in fs
  (WPLASMAI=    0.000 imaginary part of plasma frequency in eV, 0.658/RTIME)
   DFIELD  = 0.0000000 0.0000000 0.0000000 field for delta impulse in time
 
 Orbital magnetization related:
   ORBITALMAG=     F  switch on orbital magnetization
   LCHIMAG   =     F  perturbation theory with respect to B field
   DQ        =  0.001000  dq finite difference perturbation B field
   LLRAUG    =     F  two centre corrections for induced B field



--------------------------------------------------------------------------------------------------------


 Static calculation
 charge density and potential will be updated during run
 spin polarized calculation
 Variant of blocked Davidson
 Davidson routine will perform the subspace rotation
 perform sub-space diagonalisation
    after iterative eigenvector-optimisation
 modified Broyden-mixing scheme, WC =      100.0
 initial mixing is a Kerker type mixing with AMIX =  0.4000 and BMIX =      1.0000
 Hartree-type preconditioning will be used
 using additional bands            7
 reciprocal scheme for non local part
 use partial core corrections
 calculate Harris-corrections to forces 
   (improved forces if not selfconsistent)
 use gradient corrections 
 use of overlap-Matrix (Vanderbilt PP)
 Gauss-broadening in eV      SIGMA  =   0.20


--------------------------------------------------------------------------------------------------------


  energy-cutoff  :      600.00
  volume of cell :      125.95
      direct lattice vectors                 reciprocal lattice vectors
     4.427989960  0.000000000  0.000000000     0.225836104  0.130386535  0.000000000
    -2.213994980  3.834751793  0.000000000     0.000000000  0.260773071  0.000000000
     0.000000000  0.000000000  7.417600155     0.000000000  0.000000000  0.134814492

  length of vectors
     4.427989960  4.427989960  7.417600155     0.260773071  0.260773071  0.134814492


 
 k-points in units of 2pi/SCALE and weight: Obtained from Transformation Matrix: 1.0
   0.00000000  0.00000000  0.00000000       0.001
   0.00230445  0.00133047  0.00000000       0.001
   0.00460890  0.00266095  0.00000000       0.001
   0.00691335  0.00399142  0.00000000       0.001
   0.00921780  0.00532190  0.00000000       0.001
   0.01152225  0.00665237  0.00000000       0.001
   0.01382670  0.00798285  0.00000000       0.001
   0.01613115  0.00931332  0.00000000       0.001
   0.01843560  0.01064380  0.00000000       0.001
   0.02074005  0.01197427  0.00000000       0.001
   0.02304450  0.01330475  0.00000000       0.001
   0.02534895  0.01463522  0.00000000       0.001
   0.02765340  0.01596570  0.00000000       0.001
   0.02995785  0.01729617  0.00000000       0.001
   0.03226230  0.01862665  0.00000000       0.001
   0.03456675  0.01995712  0.00000000       0.001
   0.03687120  0.02128760  0.00000000       0.001
   0.03917565  0.02261807  0.00000000       0.001
   0.04148010  0.02394855  0.00000000       0.001
   0.04378455  0.02527902  0.00000000       0.001
   0.04608900  0.02660950  0.00000000       0.001
   0.04839345  0.02793997  0.00000000       0.001
   0.05069790  0.02927045  0.00000000       0.001
   0.05300235  0.03060092  0.00000000       0.001
   0.05530680  0.03193140  0.00000000       0.001
   0.05761125  0.03326187  0.00000000       0.001
   0.05991570  0.03459235  0.00000000       0.001
   0.06222015  0.03592282  0.00000000       0.001
   0.06452460  0.03725330  0.00000000       0.001
   0.06682905  0.03858377  0.00000000       0.001
   0.06913350  0.03991425  0.00000000       0.001
   0.07143795  0.04124472  0.00000000       0.001
   0.07374240  0.04257520  0.00000000       0.001
   0.07604685  0.04390567  0.00000000       0.001
   0.07835130  0.04523614  0.00000000       0.001
   0.08065575  0.04656662  0.00000000       0.001
   0.08296020  0.04789709  0.00000000       0.001
   0.08526465  0.04922757  0.00000000       0.001
   0.08756910  0.05055804  0.00000000       0.001
   0.08987355  0.05188852  0.00000000       0.001
   0.09217800  0.05321899  0.00000000       0.001
   0.09448245  0.05454947  0.00000000       0.001
   0.09678690  0.05587994  0.00000000       0.001
   0.09909135  0.05721042  0.00000000       0.001
   0.10139580  0.05854089  0.00000000       0.001
   0.10370025  0.05987137  0.00000000       0.001
   0.10600470  0.06120184  0.00000000       0.001
   0.10830915  0.06253232  0.00000000       0.001
   0.11061360  0.06386279  0.00000000       0.001
   0.11291805  0.06519327  0.00000000       0.001
   0.11291805  0.06519327  0.00000000       0.001
   0.11189385  0.06519327  0.00068783       0.001
   0.11086965  0.06519327  0.00137566       0.001
   0.10984545  0.06519327  0.00206349       0.001
   0.10882125  0.06519327  0.00275132       0.001
   0.10779705  0.06519327  0.00343915       0.001
   0.10677285  0.06519327  0.00412697       0.001
   0.10574865  0.06519327  0.00481480       0.001
   0.10472445  0.06519327  0.00550263       0.001
   0.10370025  0.06519327  0.00619046       0.001
   0.10267605  0.06519327  0.00687829       0.001
   0.10165185  0.06519327  0.00756612       0.001
   0.10062765  0.06519327  0.00825395       0.001
   0.09960345  0.06519327  0.00894178       0.001
   0.09857925  0.06519327  0.00962961       0.001
   0.09755505  0.06519327  0.01031744       0.001
   0.09653085  0.06519327  0.01100526       0.001
   0.09550665  0.06519327  0.01169309       0.001
   0.09448245  0.06519327  0.01238092       0.001
   0.09345825  0.06519327  0.01306875       0.001
   0.09243405  0.06519327  0.01375658       0.001
   0.09140985  0.06519327  0.01444441       0.001
   0.09038565  0.06519327  0.01513224       0.001
   0.08936145  0.06519327  0.01582007       0.001
   0.08833725  0.06519327  0.01650790       0.001
   0.08731305  0.06519327  0.01719573       0.001
   0.08628885  0.06519327  0.01788356       0.001
   0.08526465  0.06519327  0.01857138       0.001
   0.08424045  0.06519327  0.01925921       0.001
   0.08321625  0.06519327  0.01994704       0.001
   0.08219205  0.06519327  0.02063487       0.001
   0.08116785  0.06519327  0.02132270       0.001
   0.08014365  0.06519327  0.02201053       0.001
   0.07911945  0.06519327  0.02269836       0.001
   0.07809525  0.06519327  0.02338619       0.001
   0.07707105  0.06519327  0.02407402       0.001
   0.07604685  0.06519327  0.02476185       0.001
   0.07502265  0.06519327  0.02544967       0.001
   0.07399845  0.06519327  0.02613750       0.001
   0.07297425  0.06519327  0.02682533       0.001
   0.07195005  0.06519327  0.02751316       0.001
   0.07092585  0.06519327  0.02820099       0.001
   0.06990165  0.06519327  0.02888882       0.001
   0.06887745  0.06519327  0.02957665       0.001
   0.06785325  0.06519327  0.03026448       0.001
   0.06682905  0.06519327  0.03095231       0.001
   0.06580485  0.06519327  0.03164014       0.001
   0.06478065  0.06519327  0.03232797       0.001
   0.06375645  0.06519327  0.03301579       0.001
   0.06273225  0.06519327  0.03370362       0.001
   0.06273225 -0.06519327  0.03370362       0.001
   0.06375645 -0.06519327  0.03301579       0.001
   0.06478065 -0.06519327  0.03232797       0.001
   0.06580485 -0.06519327  0.03164014       0.001
   0.06682905 -0.06519327  0.03095231       0.001
   0.06785325 -0.06519327  0.03026448       0.001
   0.06887745 -0.06519327  0.02957665       0.001
   0.06990165 -0.06519327  0.02888882       0.001
   0.07092585 -0.06519327  0.02820099       0.001
   0.07195005 -0.06519327  0.02751316       0.001
   0.07297425 -0.06519327  0.02682533       0.001
   0.07399845 -0.06519327  0.02613750       0.001
   0.07502265 -0.06519327  0.02544967       0.001
   0.07604685 -0.06519327  0.02476185       0.001
   0.07707105 -0.06519327  0.02407402       0.001
   0.07809525 -0.06519327  0.02338619       0.001
   0.07911945 -0.06519327  0.02269836       0.001
   0.08014365 -0.06519327  0.02201053       0.001
   0.08116785 -0.06519327  0.02132270       0.001
   0.08219205 -0.06519327  0.02063487       0.001
   0.08321625 -0.06519327  0.01994704       0.001
   0.08424045 -0.06519327  0.01925921       0.001
   0.08526465 -0.06519327  0.01857138       0.001
   0.08628885 -0.06519327  0.01788356       0.001
   0.08731305 -0.06519327  0.01719573       0.001
   0.08833725 -0.06519327  0.01650790       0.001
   0.08936145 -0.06519327  0.01582007       0.001
   0.09038565 -0.06519327  0.01513224       0.001
   0.09140985 -0.06519327  0.01444441       0.001
   0.09243405 -0.06519327  0.01375658       0.001
   0.09345825 -0.06519327  0.01306875       0.001
   0.09448245 -0.06519327  0.01238092       0.001
   0.09550665 -0.06519327  0.01169309       0.001
   0.09653085 -0.06519327  0.01100526       0.001
   0.09755505 -0.06519327  0.01031744       0.001
   0.09857925 -0.06519327  0.00962961       0.001
   0.09960345 -0.06519327  0.00894178       0.001
   0.10062765 -0.06519327  0.00825395       0.001
   0.10165185 -0.06519327  0.00756612       0.001
   0.10267605 -0.06519327  0.00687829       0.001
   0.10370025 -0.06519327  0.00619046       0.001
   0.10472445 -0.06519327  0.00550263       0.001
   0.10574865 -0.06519327  0.00481480       0.001
   0.10677285 -0.06519327  0.00412697       0.001
   0.10779705 -0.06519327  0.00343915       0.001
   0.10882125 -0.06519327  0.00275132       0.001
   0.10984545 -0.06519327  0.00206349       0.001
   0.11086965 -0.06519327  0.00137566       0.001
   0.11189385 -0.06519327  0.00068783       0.001
   0.11291805 -0.06519327  0.00000000       0.001
   0.11291805 -0.06519327  0.00000000       0.001
   0.11214990 -0.06652374  0.00000000       0.001
   0.11138175 -0.06785422  0.00000000       0.001
   0.11061360 -0.06918469  0.00000000       0.001
   0.10984545 -0.07051517  0.00000000       0.001
   0.10907730 -0.07184564  0.00000000       0.001
   0.10830915 -0.07317612  0.00000000       0.001
   0.10754100 -0.07450659  0.00000000       0.001
   0.10677285 -0.07583707  0.00000000       0.001
   0.10600470 -0.07716754  0.00000000       0.001
   0.10523655 -0.07849802  0.00000000       0.001
   0.10446840 -0.07982849  0.00000000       0.001
   0.10370025 -0.08115897  0.00000000       0.001
   0.10293210 -0.08248944  0.00000000       0.001
   0.10216395 -0.08381992  0.00000000       0.001
   0.10139580 -0.08515039  0.00000000       0.001
   0.10062765 -0.08648087  0.00000000       0.001
   0.09985950 -0.08781134  0.00000000       0.001
   0.09909135 -0.08914181  0.00000000       0.001
   0.09832320 -0.09047229  0.00000000       0.001
   0.09755505 -0.09180276  0.00000000       0.001
   0.09678690 -0.09313324  0.00000000       0.001
   0.09601875 -0.09446371  0.00000000       0.001
   0.09525060 -0.09579419  0.00000000       0.001
   0.09448245 -0.09712466  0.00000000       0.001
   0.09371430 -0.09845514  0.00000000       0.001
   0.09294615 -0.09978561  0.00000000       0.001
   0.09217800 -0.10111609  0.00000000       0.001
   0.09140985 -0.10244656  0.00000000       0.001
   0.09064170 -0.10377704  0.00000000       0.001
   0.08987355 -0.10510751  0.00000000       0.001
   0.08910540 -0.10643799  0.00000000       0.001
   0.08833725 -0.10776846  0.00000000       0.001
   0.08756910 -0.10909894  0.00000000       0.001
   0.08680095 -0.11042941  0.00000000       0.001
   0.08603280 -0.11175989  0.00000000       0.001
   0.08526465 -0.11309036  0.00000000       0.001
   0.08449650 -0.11442084  0.00000000       0.001
   0.08372835 -0.11575131  0.00000000       0.001
   0.08296020 -0.11708179  0.00000000       0.001
   0.08219205 -0.11841226  0.00000000       0.001
   0.08142390 -0.11974274  0.00000000       0.001
   0.08065575 -0.12107321  0.00000000       0.001
   0.07988760 -0.12240369  0.00000000       0.001
   0.07911945 -0.12373416  0.00000000       0.001
   0.07835130 -0.12506464  0.00000000       0.001
   0.07758315 -0.12639511  0.00000000       0.001
   0.07681500 -0.12772559  0.00000000       0.001
   0.07604685 -0.12905606  0.00000000       0.001
   0.07527870 -0.13038654  0.00000000       0.001
   0.07527870 -0.13038654  0.00000000       0.001
   0.07502265 -0.12905606  0.00068783       0.001
   0.07476660 -0.12772559  0.00137566       0.001
   0.07451055 -0.12639511  0.00206349       0.001
   0.07425450 -0.12506464  0.00275132       0.001
   0.07399845 -0.12373416  0.00343915       0.001
   0.07374240 -0.12240369  0.00412697       0.001
   0.07348635 -0.12107321  0.00481480       0.001
   0.07323030 -0.11974274  0.00550263       0.001
   0.07297425 -0.11841226  0.00619046       0.001
   0.07271820 -0.11708179  0.00687829       0.001
   0.07246215 -0.11575131  0.00756612       0.001
   0.07220610 -0.11442084  0.00825395       0.001
   0.07195005 -0.11309036  0.00894178       0.001
   0.07169400 -0.11175989  0.00962961       0.001
   0.07143795 -0.11042941  0.01031744       0.001
   0.07118190 -0.10909894  0.01100526       0.001
   0.07092585 -0.10776846  0.01169309       0.001
   0.07066980 -0.10643799  0.01238092       0.001
   0.07041375 -0.10510751  0.01306875       0.001
   0.07015770 -0.10377704  0.01375658       0.001
   0.06990165 -0.10244656  0.01444441       0.001
   0.06964560 -0.10111609  0.01513224       0.001
   0.06938955 -0.09978561  0.01582007       0.001
   0.06913350 -0.09845514  0.01650790       0.001
   0.06887745 -0.09712466  0.01719573       0.001
   0.06862140 -0.09579419  0.01788356       0.001
   0.06836535 -0.09446371  0.01857138       0.001
   0.06810930 -0.09313324  0.01925921       0.001
   0.06785325 -0.09180276  0.01994704       0.001
   0.06759720 -0.09047229  0.02063487       0.001
   0.06734115 -0.08914181  0.02132270       0.001
   0.06708510 -0.08781134  0.02201053       0.001
   0.06682905 -0.08648087  0.02269836       0.001
   0.06657300 -0.08515039  0.02338619       0.001
   0.06631695 -0.08381992  0.02407402       0.001
   0.06606090 -0.08248944  0.02476185       0.001
   0.06580485 -0.08115897  0.02544967       0.001
   0.06554880 -0.07982849  0.02613750       0.001
   0.06529275 -0.07849802  0.02682533       0.001
   0.06503670 -0.07716754  0.02751316       0.001
   0.06478065 -0.07583707  0.02820099       0.001
   0.06452460 -0.07450659  0.02888882       0.001
   0.06426855 -0.07317612  0.02957665       0.001
   0.06401250 -0.07184564  0.03026448       0.001
   0.06375645 -0.07051517  0.03095231       0.001
   0.06350040 -0.06918469  0.03164014       0.001
   0.06324435 -0.06785422  0.03232797       0.001
   0.06298830 -0.06652374  0.03301579       0.001
   0.06273225 -0.06519327  0.03370362       0.001
   0.06273225  0.06519327  0.03370362       0.001
   0.06298830  0.06652374  0.03301579       0.001
   0.06324435  0.06785422  0.03232797       0.001
   0.06350040  0.06918469  0.03164014       0.001
   0.06375645  0.07051517  0.03095231       0.001
   0.06401250  0.07184564  0.03026448       0.001
   0.06426855  0.07317612  0.02957665       0.001
   0.06452460  0.07450659  0.02888882       0.001
   0.06478065  0.07583707  0.02820099       0.001
   0.06503670  0.07716754  0.02751316       0.001
   0.06529275  0.07849802  0.02682533       0.001
   0.06554880  0.07982849  0.02613750       0.001
   0.06580485  0.08115897  0.02544967       0.001
   0.06606090  0.08248944  0.02476185       0.001
   0.06631695  0.08381992  0.02407402       0.001
   0.06657300  0.08515039  0.02338619       0.001
   0.06682905  0.08648087  0.02269836       0.001
   0.06708510  0.08781134  0.02201053       0.001
   0.06734115  0.08914181  0.02132270       0.001
   0.06759720  0.09047229  0.02063487       0.001
   0.06785325  0.09180276  0.01994704       0.001
   0.06810930  0.09313324  0.01925921       0.001
   0.06836535  0.09446371  0.01857138       0.001
   0.06862140  0.09579419  0.01788356       0.001
   0.06887745  0.09712466  0.01719573       0.001
   0.06913350  0.09845514  0.01650790       0.001
   0.06938955  0.09978561  0.01582007       0.001
   0.06964560  0.10111609  0.01513224       0.001
   0.06990165  0.10244656  0.01444441       0.001
   0.07015770  0.10377704  0.01375658       0.001
   0.07041375  0.10510751  0.01306875       0.001
   0.07066980  0.10643799  0.01238092       0.001
   0.07092585  0.10776846  0.01169309       0.001
   0.07118190  0.10909894  0.01100526       0.001
   0.07143795  0.11042941  0.01031744       0.001
   0.07169400  0.11175989  0.00962961       0.001
   0.07195005  0.11309036  0.00894178       0.001
   0.07220610  0.11442084  0.00825395       0.001
   0.07246215  0.11575131  0.00756612       0.001
   0.07271820  0.11708179  0.00687829       0.001
   0.07297425  0.11841226  0.00619046       0.001
   0.07323030  0.11974274  0.00550263       0.001
   0.07348635  0.12107321  0.00481480       0.001
   0.07374240  0.12240369  0.00412697       0.001
   0.07399845  0.12373416  0.00343915       0.001
   0.07425450  0.12506464  0.00275132       0.001
   0.07451055  0.12639511  0.00206349       0.001
   0.07476660  0.12772559  0.00137566       0.001
   0.07502265  0.12905606  0.00068783       0.001
   0.07527870  0.13038654  0.00000000       0.001
   0.07527870  0.13038654  0.00000000       0.001
   0.07374240  0.12772559  0.00000000       0.001
   0.07220610  0.12506464  0.00000000       0.001
   0.07066980  0.12240369  0.00000000       0.001
   0.06913350  0.11974274  0.00000000       0.001
   0.06759720  0.11708179  0.00000000       0.001
   0.06606090  0.11442084  0.00000000       0.001
   0.06452460  0.11175989  0.00000000       0.001
   0.06298830  0.10909894  0.00000000       0.001
   0.06145200  0.10643799  0.00000000       0.001
   0.05991570  0.10377704  0.00000000       0.001
   0.05837940  0.10111609  0.00000000       0.001
   0.05684310  0.09845514  0.00000000       0.001
   0.05530680  0.09579419  0.00000000       0.001
   0.05377050  0.09313324  0.00000000       0.001
   0.05223420  0.09047229  0.00000000       0.001
   0.05069790  0.08781134  0.00000000       0.001
   0.04916160  0.08515039  0.00000000       0.001
   0.04762530  0.08248944  0.00000000       0.001
   0.04608900  0.07982849  0.00000000       0.001
   0.04455270  0.07716754  0.00000000       0.001
   0.04301640  0.07450659  0.00000000       0.001
   0.04148010  0.07184564  0.00000000       0.001
   0.03994380  0.06918469  0.00000000       0.001
   0.03840750  0.06652374  0.00000000       0.001
   0.03687120  0.06386279  0.00000000       0.001
   0.03533490  0.06120184  0.00000000       0.001
   0.03379860  0.05854089  0.00000000       0.001
   0.03226230  0.05587994  0.00000000       0.001
   0.03072600  0.05321899  0.00000000       0.001
   0.02918970  0.05055804  0.00000000       0.001
   0.02765340  0.04789709  0.00000000       0.001
   0.02611710  0.04523614  0.00000000       0.001
   0.02458080  0.04257520  0.00000000       0.001
   0.02304450  0.03991425  0.00000000       0.001
   0.02150820  0.03725330  0.00000000       0.001
   0.01997190  0.03459235  0.00000000       0.001
   0.01843560  0.03193140  0.00000000       0.001
   0.01689930  0.02927045  0.00000000       0.001
   0.01536300  0.02660950  0.00000000       0.001
   0.01382670  0.02394855  0.00000000       0.001
   0.01229040  0.02128760  0.00000000       0.001
   0.01075410  0.01862665  0.00000000       0.001
   0.00921780  0.01596570  0.00000000       0.001
   0.00768150  0.01330475  0.00000000       0.001
   0.00614520  0.01064380  0.00000000       0.001
   0.00460890  0.00798285  0.00000000       0.001
   0.00307260  0.00532190  0.00000000       0.001
   0.00153630  0.00266095  0.00000000       0.001
   0.00000000  0.00000000  0.00000000       0.001
   0.00000000  0.00000000  0.00000000       0.001
   0.00128025  0.00133047  0.00068783       0.001
   0.00256050  0.00266095  0.00137566       0.001
   0.00384075  0.00399142  0.00206349       0.001
   0.00512100  0.00532190  0.00275132       0.001
   0.00640125  0.00665237  0.00343915       0.001
   0.00768150  0.00798285  0.00412697       0.001
   0.00896175  0.00931332  0.00481480       0.001
   0.01024200  0.01064380  0.00550263       0.001
   0.01152225  0.01197427  0.00619046       0.001
   0.01280250  0.01330475  0.00687829       0.001
   0.01408275  0.01463522  0.00756612       0.001
   0.01536300  0.01596570  0.00825395       0.001
   0.01664325  0.01729617  0.00894178       0.001
   0.01792350  0.01862665  0.00962961       0.001
   0.01920375  0.01995712  0.01031744       0.001
   0.02048400  0.02128760  0.01100526       0.001
   0.02176425  0.02261807  0.01169309       0.001
   0.02304450  0.02394855  0.01238092       0.001
   0.02432475  0.02527902  0.01306875       0.001
   0.02560500  0.02660950  0.01375658       0.001
   0.02688525  0.02793997  0.01444441       0.001
   0.02816550  0.02927045  0.01513224       0.001
   0.02944575  0.03060092  0.01582007       0.001
   0.03072600  0.03193140  0.01650790       0.001
   0.03200625  0.03326187  0.01719573       0.001
   0.03328650  0.03459235  0.01788356       0.001
   0.03456675  0.03592282  0.01857138       0.001
   0.03584700  0.03725330  0.01925921       0.001
   0.03712725  0.03858377  0.01994704       0.001
   0.03840750  0.03991425  0.02063487       0.001
   0.03968775  0.04124472  0.02132270       0.001
   0.04096800  0.04257520  0.02201053       0.001
   0.04224825  0.04390567  0.02269836       0.001
   0.04352850  0.04523614  0.02338619       0.001
   0.04480875  0.04656662  0.02407402       0.001
   0.04608900  0.04789709  0.02476185       0.001
   0.04736925  0.04922757  0.02544967       0.001
   0.04864950  0.05055804  0.02613750       0.001
   0.04992975  0.05188852  0.02682533       0.001
   0.05121000  0.05321899  0.02751316       0.001
   0.05249025  0.05454947  0.02820099       0.001
   0.05377050  0.05587994  0.02888882       0.001
   0.05505075  0.05721042  0.02957665       0.001
   0.05633100  0.05854089  0.03026448       0.001
   0.05761125  0.05987137  0.03095231       0.001
   0.05889150  0.06120184  0.03164014       0.001
   0.06017175  0.06253232  0.03232797       0.001
   0.06145200  0.06386279  0.03301579       0.001
   0.06273225  0.06519327  0.03370362       0.001
   0.06273225 -0.06519327  0.03370362       0.001
   0.06145200 -0.06386279  0.03301579       0.001
   0.06017175 -0.06253232  0.03232797       0.001
   0.05889150 -0.06120184  0.03164014       0.001
   0.05761125 -0.05987137  0.03095231       0.001
   0.05633100 -0.05854089  0.03026448       0.001
   0.05505075 -0.05721042  0.02957665       0.001
   0.05377050 -0.05587994  0.02888882       0.001
   0.05249025 -0.05454947  0.02820099       0.001
   0.05121000 -0.05321899  0.02751316       0.001
   0.04992975 -0.05188852  0.02682533       0.001
   0.04864950 -0.05055804  0.02613750       0.001
   0.04736925 -0.04922757  0.02544967       0.001
   0.04608900 -0.04789709  0.02476185       0.001
   0.04480875 -0.04656662  0.02407402       0.001
   0.04352850 -0.04523614  0.02338619       0.001
   0.04224825 -0.04390567  0.02269836       0.001
   0.04096800 -0.04257520  0.02201053       0.001
   0.03968775 -0.04124472  0.02132270       0.001
   0.03840750 -0.03991425  0.02063487       0.001
   0.03712725 -0.03858377  0.01994704       0.001
   0.03584700 -0.03725330  0.01925921       0.001
   0.03456675 -0.03592282  0.01857138       0.001
   0.03328650 -0.03459235  0.01788356       0.001
   0.03200625 -0.03326187  0.01719573       0.001
   0.03072600 -0.03193140  0.01650790       0.001
   0.02944575 -0.03060092  0.01582007       0.001
   0.02816550 -0.02927045  0.01513224       0.001
   0.02688525 -0.02793997  0.01444441       0.001
   0.02560500 -0.02660950  0.01375658       0.001
   0.02432475 -0.02527902  0.01306875       0.001
   0.02304450 -0.02394855  0.01238092       0.001
   0.02176425 -0.02261807  0.01169309       0.001
   0.02048400 -0.02128760  0.01100526       0.001
   0.01920375 -0.01995712  0.01031744       0.001
   0.01792350 -0.01862665  0.00962961       0.001
   0.01664325 -0.01729617  0.00894178       0.001
   0.01536300 -0.01596570  0.00825395       0.001
   0.01408275 -0.01463522  0.00756612       0.001
   0.01280250 -0.01330475  0.00687829       0.001
   0.01152225 -0.01197427  0.00619046       0.001
   0.01024200 -0.01064380  0.00550263       0.001
   0.00896175 -0.00931332  0.00481480       0.001
   0.00768150 -0.00798285  0.00412697       0.001
   0.00640125 -0.00665237  0.00343915       0.001
   0.00512100 -0.00532190  0.00275132       0.001
   0.00384075 -0.00399142  0.00206349       0.001
   0.00256050 -0.00266095  0.00137566       0.001
   0.00128025 -0.00133047  0.00068783       0.001
   0.00000000  0.00000000  0.00000000       0.001
   0.00000000  0.00000000  0.00000000       0.001
   0.00000000  0.00000000  0.00137566       0.001
   0.00000000  0.00000000  0.00275132       0.001
   0.00000000  0.00000000  0.00412697       0.001
   0.00000000  0.00000000  0.00550263       0.001
   0.00000000  0.00000000  0.00687829       0.001
   0.00000000  0.00000000  0.00825395       0.001
   0.00000000  0.00000000  0.00962961       0.001
   0.00000000  0.00000000  0.01100526       0.001
   0.00000000  0.00000000  0.01238092       0.001
   0.00000000  0.00000000  0.01375658       0.001
   0.00000000  0.00000000  0.01513224       0.001
   0.00000000  0.00000000  0.01650790       0.001
   0.00000000  0.00000000  0.01788356       0.001
   0.00000000  0.00000000  0.01925921       0.001
   0.00000000  0.00000000  0.02063487       0.001
   0.00000000  0.00000000  0.02201053       0.001
   0.00000000  0.00000000  0.02338619       0.001
   0.00000000  0.00000000  0.02476185       0.001
   0.00000000  0.00000000  0.02613750       0.001
   0.00000000  0.00000000  0.02751316       0.001
   0.00000000  0.00000000  0.02888882       0.001
   0.00000000  0.00000000  0.03026448       0.001
   0.00000000  0.00000000  0.03164014       0.001
   0.00000000  0.00000000  0.03301579       0.001
   0.00000000  0.00000000  0.03439145       0.001
   0.00000000  0.00000000  0.03576711       0.001
   0.00000000  0.00000000  0.03714277       0.001
   0.00000000  0.00000000  0.03851843       0.001
   0.00000000  0.00000000  0.03989408       0.001
   0.00000000  0.00000000  0.04126974       0.001
   0.00000000  0.00000000  0.04264540       0.001
   0.00000000  0.00000000  0.04402106       0.001
   0.00000000  0.00000000  0.04539672       0.001
   0.00000000  0.00000000  0.04677237       0.001
   0.00000000  0.00000000  0.04814803       0.001
   0.00000000  0.00000000  0.04952369       0.001
   0.00000000  0.00000000  0.05089935       0.001
   0.00000000  0.00000000  0.05227501       0.001
   0.00000000  0.00000000  0.05365067       0.001
   0.00000000  0.00000000  0.05502632       0.001
   0.00000000  0.00000000  0.05640198       0.001
   0.00000000  0.00000000  0.05777764       0.001
   0.00000000  0.00000000  0.05915330       0.001
   0.00000000  0.00000000  0.06052896       0.001
   0.00000000  0.00000000  0.06190461       0.001
   0.00000000  0.00000000  0.06328027       0.001
   0.00000000  0.00000000  0.06465593       0.001
   0.00000000  0.00000000  0.06603159       0.001
   0.00000000  0.00000000  0.06740725       0.001
   0.00000000  0.00000000  0.06740725       0.001
   0.00128025 -0.00133047  0.06671942       0.001
   0.00256050 -0.00266095  0.06603159       0.001
   0.00384075 -0.00399142  0.06534376       0.001
   0.00512100 -0.00532190  0.06465593       0.001
   0.00640125 -0.00665237  0.06396810       0.001
   0.00768150 -0.00798285  0.06328027       0.001
   0.00896175 -0.00931332  0.06259244       0.001
   0.01024200 -0.01064380  0.06190461       0.001
   0.01152225 -0.01197427  0.06121678       0.001
   0.01280250 -0.01330475  0.06052896       0.001
   0.01408275 -0.01463522  0.05984113       0.001
   0.01536300 -0.01596570  0.05915330       0.001
   0.01664325 -0.01729617  0.05846547       0.001
   0.01792350 -0.01862665  0.05777764       0.001
   0.01920375 -0.01995712  0.05708981       0.001
   0.02048400 -0.02128760  0.05640198       0.001
   0.02176425 -0.02261807  0.05571415       0.001
   0.02304450 -0.02394855  0.05502632       0.001
   0.02432475 -0.02527902  0.05433849       0.001
   0.02560500 -0.02660950  0.05365067       0.001
   0.02688525 -0.02793997  0.05296284       0.001
   0.02816550 -0.02927045  0.05227501       0.001
   0.02944575 -0.03060092  0.05158718       0.001
   0.03072600 -0.03193140  0.05089935       0.001
   0.03200625 -0.03326187  0.05021152       0.001
   0.03328650 -0.03459235  0.04952369       0.001
   0.03456675 -0.03592282  0.04883586       0.001
   0.03584700 -0.03725330  0.04814803       0.001
   0.03712725 -0.03858377  0.04746020       0.001
   0.03840750 -0.03991425  0.04677237       0.001
   0.03968775 -0.04124472  0.04608455       0.001
   0.04096800 -0.04257520  0.04539672       0.001
   0.04224825 -0.04390567  0.04470889       0.001
   0.04352850 -0.04523614  0.04402106       0.001
   0.04480875 -0.04656662  0.04333323       0.001
   0.04608900 -0.04789709  0.04264540       0.001
   0.04736925 -0.04922757  0.04195757       0.001
   0.04864950 -0.05055804  0.04126974       0.001
   0.04992975 -0.05188852  0.04058191       0.001
   0.05121000 -0.05321899  0.03989408       0.001
   0.05249025 -0.05454947  0.03920626       0.001
   0.05377050 -0.05587994  0.03851843       0.001
   0.05505075 -0.05721042  0.03783060       0.001
   0.05633100 -0.05854089  0.03714277       0.001
   0.05761125 -0.05987137  0.03645494       0.001
   0.05889150 -0.06120184  0.03576711       0.001
   0.06017175 -0.06253232  0.03507928       0.001
   0.06145200 -0.06386279  0.03439145       0.001
   0.06273225 -0.06519327  0.03370362       0.001
   0.06273225  0.06519327  0.03370362       0.001
   0.06145200  0.06386279  0.03439145       0.001
   0.06017175  0.06253232  0.03507928       0.001
   0.05889150  0.06120184  0.03576711       0.001
   0.05761125  0.05987137  0.03645494       0.001
   0.05633100  0.05854089  0.03714277       0.001
   0.05505075  0.05721042  0.03783060       0.001
   0.05377050  0.05587994  0.03851843       0.001
   0.05249025  0.05454947  0.03920626       0.001
   0.05121000  0.05321899  0.03989408       0.001
   0.04992975  0.05188852  0.04058191       0.001
   0.04864950  0.05055804  0.04126974       0.001
   0.04736925  0.04922757  0.04195757       0.001
   0.04608900  0.04789709  0.04264540       0.001
   0.04480875  0.04656662  0.04333323       0.001
   0.04352850  0.04523614  0.04402106       0.001
   0.04224825  0.04390567  0.04470889       0.001
   0.04096800  0.04257520  0.04539672       0.001
   0.03968775  0.04124472  0.04608455       0.001
   0.03840750  0.03991425  0.04677237       0.001
   0.03712725  0.03858377  0.04746020       0.001
   0.03584700  0.03725330  0.04814803       0.001
   0.03456675  0.03592282  0.04883586       0.001
   0.03328650  0.03459235  0.04952369       0.001
   0.03200625  0.03326187  0.05021152       0.001
   0.03072600  0.03193140  0.05089935       0.001
   0.02944575  0.03060092  0.05158718       0.001
   0.02816550  0.02927045  0.05227501       0.001
   0.02688525  0.02793997  0.05296284       0.001
   0.02560500  0.02660950  0.05365067       0.001
   0.02432475  0.02527902  0.05433849       0.001
   0.02304450  0.02394855  0.05502632       0.001
   0.02176425  0.02261807  0.05571415       0.001
   0.02048400  0.02128760  0.05640198       0.001
   0.01920375  0.01995712  0.05708981       0.001
   0.01792350  0.01862665  0.05777764       0.001
   0.01664325  0.01729617  0.05846547       0.001
   0.01536300  0.01596570  0.05915330       0.001
   0.01408275  0.01463522  0.05984113       0.001
   0.01280250  0.01330475  0.06052896       0.001
   0.01152225  0.01197427  0.06121678       0.001
   0.01024200  0.01064380  0.06190461       0.001
   0.00896175  0.00931332  0.06259244       0.001
   0.00768150  0.00798285  0.06328027       0.001
   0.00640125  0.00665237  0.06396810       0.001
   0.00512100  0.00532190  0.06465593       0.001
   0.00384075  0.00399142  0.06534376       0.001
   0.00256050  0.00266095  0.06603159       0.001
   0.00128025  0.00133047  0.06671942       0.001
   0.00000000  0.00000000  0.06740725       0.001
   0.00000000  0.00000000  0.06740725       0.001
   0.00230445  0.00133047  0.06740725       0.001
   0.00460890  0.00266095  0.06740725       0.001
   0.00691335  0.00399142  0.06740725       0.001
   0.00921780  0.00532190  0.06740725       0.001
   0.01152225  0.00665237  0.06740725       0.001
   0.01382670  0.00798285  0.06740725       0.001
   0.01613115  0.00931332  0.06740725       0.001
   0.01843560  0.01064380  0.06740725       0.001
   0.02074005  0.01197427  0.06740725       0.001
   0.02304450  0.01330475  0.06740725       0.001
   0.02534895  0.01463522  0.06740725       0.001
   0.02765340  0.01596570  0.06740725       0.001
   0.02995785  0.01729617  0.06740725       0.001
   0.03226230  0.01862665  0.06740725       0.001
   0.03456675  0.01995712  0.06740725       0.001
   0.03687120  0.02128760  0.06740725       0.001
   0.03917565  0.02261807  0.06740725       0.001
   0.04148010  0.02394855  0.06740725       0.001
   0.04378455  0.02527902  0.06740725       0.001
   0.04608900  0.02660950  0.06740725       0.001
   0.04839345  0.02793997  0.06740725       0.001
   0.05069790  0.02927045  0.06740725       0.001
   0.05300235  0.03060092  0.06740725       0.001
   0.05530680  0.03193140  0.06740725       0.001
   0.05761125  0.03326187  0.06740725       0.001
   0.05991570  0.03459235  0.06740725       0.001
   0.06222015  0.03592282  0.06740725       0.001
   0.06452460  0.03725330  0.06740725       0.001
   0.06682905  0.03858377  0.06740725       0.001
   0.06913350  0.03991425  0.06740725       0.001
   0.07143795  0.04124472  0.06740725       0.001
   0.07374240  0.04257520  0.06740725       0.001
   0.07604685  0.04390567  0.06740725       0.001
   0.07835130  0.04523614  0.06740725       0.001
   0.08065575  0.04656662  0.06740725       0.001
   0.08296020  0.04789709  0.06740725       0.001
   0.08526465  0.04922757  0.06740725       0.001
   0.08756910  0.05055804  0.06740725       0.001
   0.08987355  0.05188852  0.06740725       0.001
   0.09217800  0.05321899  0.06740725       0.001
   0.09448245  0.05454947  0.06740725       0.001
   0.09678690  0.05587994  0.06740725       0.001
   0.09909135  0.05721042  0.06740725       0.001
   0.10139580  0.05854089  0.06740725       0.001
   0.10370025  0.05987137  0.06740725       0.001
   0.10600470  0.06120184  0.06740725       0.001
   0.10830915  0.06253232  0.06740725       0.001
   0.11061360  0.06386279  0.06740725       0.001
   0.11291805  0.06519327  0.06740725       0.001
   0.11291805  0.06519327  0.06740725       0.001
   0.11189385  0.06519327  0.06671942       0.001
   0.11086965  0.06519327  0.06603159       0.001
   0.10984545  0.06519327  0.06534376       0.001
   0.10882125  0.06519327  0.06465593       0.001
   0.10779705  0.06519327  0.06396810       0.001
   0.10677285  0.06519327  0.06328027       0.001
   0.10574865  0.06519327  0.06259244       0.001
   0.10472445  0.06519327  0.06190461       0.001
   0.10370025  0.06519327  0.06121678       0.001
   0.10267605  0.06519327  0.06052896       0.001
   0.10165185  0.06519327  0.05984113       0.001
   0.10062765  0.06519327  0.05915330       0.001
   0.09960345  0.06519327  0.05846547       0.001
   0.09857925  0.06519327  0.05777764       0.001
   0.09755505  0.06519327  0.05708981       0.001
   0.09653085  0.06519327  0.05640198       0.001
   0.09550665  0.06519327  0.05571415       0.001
   0.09448245  0.06519327  0.05502632       0.001
   0.09345825  0.06519327  0.05433849       0.001
   0.09243405  0.06519327  0.05365067       0.001
   0.09140985  0.06519327  0.05296284       0.001
   0.09038565  0.06519327  0.05227501       0.001
   0.08936145  0.06519327  0.05158718       0.001
   0.08833725  0.06519327  0.05089935       0.001
   0.08731305  0.06519327  0.05021152       0.001
   0.08628885  0.06519327  0.04952369       0.001
   0.08526465  0.06519327  0.04883586       0.001
   0.08424045  0.06519327  0.04814803       0.001
   0.08321625  0.06519327  0.04746020       0.001
   0.08219205  0.06519327  0.04677237       0.001
   0.08116785  0.06519327  0.04608455       0.001
   0.08014365  0.06519327  0.04539672       0.001
   0.07911945  0.06519327  0.04470889       0.001
   0.07809525  0.06519327  0.04402106       0.001
   0.07707105  0.06519327  0.04333323       0.001
   0.07604685  0.06519327  0.04264540       0.001
   0.07502265  0.06519327  0.04195757       0.001
   0.07399845  0.06519327  0.04126974       0.001
   0.07297425  0.06519327  0.04058191       0.001
   0.07195005  0.06519327  0.03989408       0.001
   0.07092585  0.06519327  0.03920626       0.001
   0.06990165  0.06519327  0.03851843       0.001
   0.06887745  0.06519327  0.03783060       0.001
   0.06785325  0.06519327  0.03714277       0.001
   0.06682905  0.06519327  0.03645494       0.001
   0.06580485  0.06519327  0.03576711       0.001
   0.06478065  0.06519327  0.03507928       0.001
   0.06375645  0.06519327  0.03439145       0.001
   0.06273225  0.06519327  0.03370362       0.001
   0.06273225 -0.06519327  0.03370362       0.001
   0.06375645 -0.06519327  0.03439145       0.001
   0.06478065 -0.06519327  0.03507928       0.001
   0.06580485 -0.06519327  0.03576711       0.001
   0.06682905 -0.06519327  0.03645494       0.001
   0.06785325 -0.06519327  0.03714277       0.001
   0.06887745 -0.06519327  0.03783060       0.001
   0.06990165 -0.06519327  0.03851843       0.001
   0.07092585 -0.06519327  0.03920626       0.001
   0.07195005 -0.06519327  0.03989408       0.001
   0.07297425 -0.06519327  0.04058191       0.001
   0.07399845 -0.06519327  0.04126974       0.001
   0.07502265 -0.06519327  0.04195757       0.001
   0.07604685 -0.06519327  0.04264540       0.001
   0.07707105 -0.06519327  0.04333323       0.001
   0.07809525 -0.06519327  0.04402106       0.001
   0.07911945 -0.06519327  0.04470889       0.001
   0.08014365 -0.06519327  0.04539672       0.001
   0.08116785 -0.06519327  0.04608455       0.001
   0.08219205 -0.06519327  0.04677237       0.001
   0.08321625 -0.06519327  0.04746020       0.001
   0.08424045 -0.06519327  0.04814803       0.001
   0.08526465 -0.06519327  0.04883586       0.001
   0.08628885 -0.06519327  0.04952369       0.001
   0.08731305 -0.06519327  0.05021152       0.001
   0.08833725 -0.06519327  0.05089935       0.001
   0.08936145 -0.06519327  0.05158718       0.001
   0.09038565 -0.06519327  0.05227501       0.001
   0.09140985 -0.06519327  0.05296284       0.001
   0.09243405 -0.06519327  0.05365067       0.001
   0.09345825 -0.06519327  0.05433849       0.001
   0.09448245 -0.06519327  0.05502632       0.001
   0.09550665 -0.06519327  0.05571415       0.001
   0.09653085 -0.06519327  0.05640198       0.001
   0.09755505 -0.06519327  0.05708981       0.001
   0.09857925 -0.06519327  0.05777764       0.001
   0.09960345 -0.06519327  0.05846547       0.001
   0.10062765 -0.06519327  0.05915330       0.001
   0.10165185 -0.06519327  0.05984113       0.001
   0.10267605 -0.06519327  0.06052896       0.001
   0.10370025 -0.06519327  0.06121678       0.001
   0.10472445 -0.06519327  0.06190461       0.001
   0.10574865 -0.06519327  0.06259244       0.001
   0.10677285 -0.06519327  0.06328027       0.001
   0.10779705 -0.06519327  0.06396810       0.001
   0.10882125 -0.06519327  0.06465593       0.001
   0.10984545 -0.06519327  0.06534376       0.001
   0.11086965 -0.06519327  0.06603159       0.001
   0.11189385 -0.06519327  0.06671942       0.001
   0.11291805 -0.06519327  0.06740725       0.001
   0.11291805 -0.06519327  0.06740725       0.001
   0.11214990 -0.06652374  0.06740725       0.001
   0.11138175 -0.06785422  0.06740725       0.001
   0.11061360 -0.06918469  0.06740725       0.001
   0.10984545 -0.07051517  0.06740725       0.001
   0.10907730 -0.07184564  0.06740725       0.001
   0.10830915 -0.07317612  0.06740725       0.001
   0.10754100 -0.07450659  0.06740725       0.001
   0.10677285 -0.07583707  0.06740725       0.001
   0.10600470 -0.07716754  0.06740725       0.001
   0.10523655 -0.07849802  0.06740725       0.001
   0.10446840 -0.07982849  0.06740725       0.001
   0.10370025 -0.08115897  0.06740725       0.001
   0.10293210 -0.08248944  0.06740725       0.001
   0.10216395 -0.08381992  0.06740725       0.001
   0.10139580 -0.08515039  0.06740725       0.001
   0.10062765 -0.08648087  0.06740725       0.001
   0.09985950 -0.08781134  0.06740725       0.001
   0.09909135 -0.08914181  0.06740725       0.001
   0.09832320 -0.09047229  0.06740725       0.001
   0.09755505 -0.09180276  0.06740725       0.001
   0.09678690 -0.09313324  0.06740725       0.001
   0.09601875 -0.09446371  0.06740725       0.001
   0.09525060 -0.09579419  0.06740725       0.001
   0.09448245 -0.09712466  0.06740725       0.001
   0.09371430 -0.09845514  0.06740725       0.001
   0.09294615 -0.09978561  0.06740725       0.001
   0.09217800 -0.10111609  0.06740725       0.001
   0.09140985 -0.10244656  0.06740725       0.001
   0.09064170 -0.10377704  0.06740725       0.001
   0.08987355 -0.10510751  0.06740725       0.001
   0.08910540 -0.10643799  0.06740725       0.001
   0.08833725 -0.10776846  0.06740725       0.001
   0.08756910 -0.10909894  0.06740725       0.001
   0.08680095 -0.11042941  0.06740725       0.001
   0.08603280 -0.11175989  0.06740725       0.001
   0.08526465 -0.11309036  0.06740725       0.001
   0.08449650 -0.11442084  0.06740725       0.001
   0.08372835 -0.11575131  0.06740725       0.001
   0.08296020 -0.11708179  0.06740725       0.001
   0.08219205 -0.11841226  0.06740725       0.001
   0.08142390 -0.11974274  0.06740725       0.001
   0.08065575 -0.12107321  0.06740725       0.001
   0.07988760 -0.12240369  0.06740725       0.001
   0.07911945 -0.12373416  0.06740725       0.001
   0.07835130 -0.12506464  0.06740725       0.001
   0.07758315 -0.12639511  0.06740725       0.001
   0.07681500 -0.12772559  0.06740725       0.001
   0.07604685 -0.12905606  0.06740725       0.001
   0.07527870 -0.13038654  0.06740725       0.001
   0.07527870 -0.13038654  0.06740725       0.001
   0.07502265 -0.12905606  0.06671942       0.001
   0.07476660 -0.12772559  0.06603159       0.001
   0.07451055 -0.12639511  0.06534376       0.001
   0.07425450 -0.12506464  0.06465593       0.001
   0.07399845 -0.12373416  0.06396810       0.001
   0.07374240 -0.12240369  0.06328027       0.001
   0.07348635 -0.12107321  0.06259244       0.001
   0.07323030 -0.11974274  0.06190461       0.001
   0.07297425 -0.11841226  0.06121678       0.001
   0.07271820 -0.11708179  0.06052896       0.001
   0.07246215 -0.11575131  0.05984113       0.001
   0.07220610 -0.11442084  0.05915330       0.001
   0.07195005 -0.11309036  0.05846547       0.001
   0.07169400 -0.11175989  0.05777764       0.001
   0.07143795 -0.11042941  0.05708981       0.001
   0.07118190 -0.10909894  0.05640198       0.001
   0.07092585 -0.10776846  0.05571415       0.001
   0.07066980 -0.10643799  0.05502632       0.001
   0.07041375 -0.10510751  0.05433849       0.001
   0.07015770 -0.10377704  0.05365067       0.001
   0.06990165 -0.10244656  0.05296284       0.001
   0.06964560 -0.10111609  0.05227501       0.001
   0.06938955 -0.09978561  0.05158718       0.001
   0.06913350 -0.09845514  0.05089935       0.001
   0.06887745 -0.09712466  0.05021152       0.001
   0.06862140 -0.09579419  0.04952369       0.001
   0.06836535 -0.09446371  0.04883586       0.001
   0.06810930 -0.09313324  0.04814803       0.001
   0.06785325 -0.09180276  0.04746020       0.001
   0.06759720 -0.09047229  0.04677237       0.001
   0.06734115 -0.08914181  0.04608455       0.001
   0.06708510 -0.08781134  0.04539672       0.001
   0.06682905 -0.08648087  0.04470889       0.001
   0.06657300 -0.08515039  0.04402106       0.001
   0.06631695 -0.08381992  0.04333323       0.001
   0.06606090 -0.08248944  0.04264540       0.001
   0.06580485 -0.08115897  0.04195757       0.001
   0.06554880 -0.07982849  0.04126974       0.001
   0.06529275 -0.07849802  0.04058191       0.001
   0.06503670 -0.07716754  0.03989408       0.001
   0.06478065 -0.07583707  0.03920626       0.001
   0.06452460 -0.07450659  0.03851843       0.001
   0.06426855 -0.07317612  0.03783060       0.001
   0.06401250 -0.07184564  0.03714277       0.001
   0.06375645 -0.07051517  0.03645494       0.001
   0.06350040 -0.06918469  0.03576711       0.001
   0.06324435 -0.06785422  0.03507928       0.001
   0.06298830 -0.06652374  0.03439145       0.001
   0.06273225 -0.06519327  0.03370362       0.001
   0.06273225  0.06519327  0.03370362       0.001
   0.06298830  0.06652374  0.03439145       0.001
   0.06324435  0.06785422  0.03507928       0.001
   0.06350040  0.06918469  0.03576711       0.001
   0.06375645  0.07051517  0.03645494       0.001
   0.06401250  0.07184564  0.03714277       0.001
   0.06426855  0.07317612  0.03783060       0.001
   0.06452460  0.07450659  0.03851843       0.001
   0.06478065  0.07583707  0.03920626       0.001
   0.06503670  0.07716754  0.03989408       0.001
   0.06529275  0.07849802  0.04058191       0.001
   0.06554880  0.07982849  0.04126974       0.001
   0.06580485  0.08115897  0.04195757       0.001
   0.06606090  0.08248944  0.04264540       0.001
   0.06631695  0.08381992  0.04333323       0.001
   0.06657300  0.08515039  0.04402106       0.001
   0.06682905  0.08648087  0.04470889       0.001
   0.06708510  0.08781134  0.04539672       0.001
   0.06734115  0.08914181  0.04608455       0.001
   0.06759720  0.09047229  0.04677237       0.001
   0.06785325  0.09180276  0.04746020       0.001
   0.06810930  0.09313324  0.04814803       0.001
   0.06836535  0.09446371  0.04883586       0.001
   0.06862140  0.09579419  0.04952369       0.001
   0.06887745  0.09712466  0.05021152       0.001
   0.06913350  0.09845514  0.05089935       0.001
   0.06938955  0.09978561  0.05158718       0.001
   0.06964560  0.10111609  0.05227501       0.001
   0.06990165  0.10244656  0.05296284       0.001
   0.07015770  0.10377704  0.05365067       0.001
   0.07041375  0.10510751  0.05433849       0.001
   0.07066980  0.10643799  0.05502632       0.001
   0.07092585  0.10776846  0.05571415       0.001
   0.07118190  0.10909894  0.05640198       0.001
   0.07143795  0.11042941  0.05708981       0.001
   0.07169400  0.11175989  0.05777764       0.001
   0.07195005  0.11309036  0.05846547       0.001
   0.07220610  0.11442084  0.05915330       0.001
   0.07246215  0.11575131  0.05984113       0.001
   0.07271820  0.11708179  0.06052896       0.001
   0.07297425  0.11841226  0.06121678       0.001
   0.07323030  0.11974274  0.06190461       0.001
   0.07348635  0.12107321  0.06259244       0.001
   0.07374240  0.12240369  0.06328027       0.001
   0.07399845  0.12373416  0.06396810       0.001
   0.07425450  0.12506464  0.06465593       0.001
   0.07451055  0.12639511  0.06534376       0.001
   0.07476660  0.12772559  0.06603159       0.001
   0.07502265  0.12905606  0.06671942       0.001
   0.07527870  0.13038654  0.06740725       0.001
   0.07527870  0.13038654  0.06740725       0.001
   0.07374240  0.12772559  0.06740725       0.001
   0.07220610  0.12506464  0.06740725       0.001
   0.07066980  0.12240369  0.06740725       0.001
   0.06913350  0.11974274  0.06740725       0.001
   0.06759720  0.11708179  0.06740725       0.001
   0.06606090  0.11442084  0.06740725       0.001
   0.06452460  0.11175989  0.06740725       0.001
   0.06298830  0.10909894  0.06740725       0.001
   0.06145200  0.10643799  0.06740725       0.001
   0.05991570  0.10377704  0.06740725       0.001
   0.05837940  0.10111609  0.06740725       0.001
   0.05684310  0.09845514  0.06740725       0.001
   0.05530680  0.09579419  0.06740725       0.001
   0.05377050  0.09313324  0.06740725       0.001
   0.05223420  0.09047229  0.06740725       0.001
   0.05069790  0.08781134  0.06740725       0.001
   0.04916160  0.08515039  0.06740725       0.001
   0.04762530  0.08248944  0.06740725       0.001
   0.04608900  0.07982849  0.06740725       0.001
   0.04455270  0.07716754  0.06740725       0.001
   0.04301640  0.07450659  0.06740725       0.001
   0.04148010  0.07184564  0.06740725       0.001
   0.03994380  0.06918469  0.06740725       0.001
   0.03840750  0.06652374  0.06740725       0.001
   0.03687120  0.06386279  0.06740725       0.001
   0.03533490  0.06120184  0.06740725       0.001
   0.03379860  0.05854089  0.06740725       0.001
   0.03226230  0.05587994  0.06740725       0.001
   0.03072600  0.05321899  0.06740725       0.001
   0.02918970  0.05055804  0.06740725       0.001
   0.02765340  0.04789709  0.06740725       0.001
   0.02611710  0.04523614  0.06740725       0.001
   0.02458080  0.04257520  0.06740725       0.001
   0.02304450  0.03991425  0.06740725       0.001
   0.02150820  0.03725330  0.06740725       0.001
   0.01997190  0.03459235  0.06740725       0.001
   0.01843560  0.03193140  0.06740725       0.001
   0.01689930  0.02927045  0.06740725       0.001
   0.01536300  0.02660950  0.06740725       0.001
   0.01382670  0.02394855  0.06740725       0.001
   0.01229040  0.02128760  0.06740725       0.001
   0.01075410  0.01862665  0.06740725       0.001
   0.00921780  0.01596570  0.06740725       0.001
   0.00768150  0.01330475  0.06740725       0.001
   0.00614520  0.01064380  0.06740725       0.001
   0.00460890  0.00798285  0.06740725       0.001
   0.00307260  0.00532190  0.06740725       0.001
   0.00153630  0.00266095  0.06740725       0.001
   0.00000000  0.00000000  0.06740725       0.001
 
 k-points in reciprocal lattice and weights: Obtained from Transformation Matrix: 1.0
   0.00000000  0.00000000  0.00000000       0.001
   0.01020408  0.00000000  0.00000000       0.001
   0.02040816  0.00000000  0.00000000       0.001
   0.03061224  0.00000000  0.00000000       0.001
   0.04081633  0.00000000  0.00000000       0.001
   0.05102041  0.00000000  0.00000000       0.001
   0.06122449  0.00000000  0.00000000       0.001
   0.07142857  0.00000000  0.00000000       0.001
   0.08163265  0.00000000  0.00000000       0.001
   0.09183673  0.00000000  0.00000000       0.001
   0.10204082  0.00000000  0.00000000       0.001
   0.11224490  0.00000000  0.00000000       0.001
   0.12244898  0.00000000  0.00000000       0.001
   0.13265306  0.00000000  0.00000000       0.001
   0.14285714  0.00000000  0.00000000       0.001
   0.15306122  0.00000000  0.00000000       0.001
   0.16326531  0.00000000  0.00000000       0.001
   0.17346939  0.00000000  0.00000000       0.001
   0.18367347  0.00000000  0.00000000       0.001
   0.19387755  0.00000000  0.00000000       0.001
   0.20408163  0.00000000  0.00000000       0.001
   0.21428571  0.00000000  0.00000000       0.001
   0.22448980  0.00000000  0.00000000       0.001
   0.23469388  0.00000000  0.00000000       0.001
   0.24489796  0.00000000  0.00000000       0.001
   0.25510204  0.00000000  0.00000000       0.001
   0.26530612  0.00000000  0.00000000       0.001
   0.27551020  0.00000000  0.00000000       0.001
   0.28571429  0.00000000  0.00000000       0.001
   0.29591837  0.00000000  0.00000000       0.001
   0.30612245  0.00000000  0.00000000       0.001
   0.31632653  0.00000000  0.00000000       0.001
   0.32653061  0.00000000  0.00000000       0.001
   0.33673469  0.00000000  0.00000000       0.001
   0.34693878  0.00000000  0.00000000       0.001
   0.35714286  0.00000000  0.00000000       0.001
   0.36734694  0.00000000  0.00000000       0.001
   0.37755102  0.00000000  0.00000000       0.001
   0.38775510  0.00000000  0.00000000       0.001
   0.39795918  0.00000000  0.00000000       0.001
   0.40816327  0.00000000  0.00000000       0.001
   0.41836735  0.00000000  0.00000000       0.001
   0.42857143  0.00000000  0.00000000       0.001
   0.43877551  0.00000000  0.00000000       0.001
   0.44897959  0.00000000  0.00000000       0.001
   0.45918367  0.00000000  0.00000000       0.001
   0.46938776  0.00000000  0.00000000       0.001
   0.47959184  0.00000000  0.00000000       0.001
   0.48979592  0.00000000  0.00000000       0.001
   0.50000000  0.00000000  0.00000000       0.001
   0.50000000  0.00000000  0.00000000       0.001
   0.49546485  0.00226757  0.00510204       0.001
   0.49092971  0.00453515  0.01020408       0.001
   0.48639456  0.00680272  0.01530612       0.001
   0.48185941  0.00907029  0.02040816       0.001
   0.47732426  0.01133787  0.02551020       0.001
   0.47278912  0.01360544  0.03061224       0.001
   0.46825397  0.01587302  0.03571429       0.001
   0.46371882  0.01814059  0.04081633       0.001
   0.45918367  0.02040816  0.04591837       0.001
   0.45464853  0.02267574  0.05102041       0.001
   0.45011338  0.02494331  0.05612245       0.001
   0.44557823  0.02721088  0.06122449       0.001
   0.44104308  0.02947846  0.06632653       0.001
   0.43650794  0.03174603  0.07142857       0.001
   0.43197279  0.03401361  0.07653061       0.001
   0.42743764  0.03628118  0.08163265       0.001
   0.42290249  0.03854875  0.08673469       0.001
[...]
  0.000   0.000   0.000  -0.000   0.000  -0.001   0.000  -0.000
 -0.002   0.004   0.000  -0.000  -0.000  -0.000  -0.002   0.000
 -0.000  -0.000   0.000  -0.000   0.000  -0.000   0.000  -0.001
  0.000   0.000  -0.001  -0.000   0.000  -0.001   0.000  -0.000
 -0.004   0.001  -0.000  -0.001   0.000   0.000   0.001  -0.000
 -0.000   0.000   0.000   0.000  -0.002  -0.000  -0.000   0.001
 -0.000   0.000  -0.007  -0.000  -0.000   0.004   0.000   0.000
 -0.002   0.000   0.000  -0.008  -0.000  -0.000   0.004   0.000
  0.000  -0.000  -0.000  -0.000  -0.007   0.000  -0.000   0.004
  0.000  -0.000  -0.002  -0.000   0.000   0.001   0.000  -0.000
 -0.000   0.000  -0.000   0.000  -0.000   0.000  -0.000   0.000
 -0.004   0.001  -0.000  -0.001   0.000   0.000   0.001  -0.000
 -0.000   0.000   0.000   0.000  -0.002  -0.000  -0.000   0.001
 -0.000   0.000  -0.006  -0.000  -0.000   0.004   0.000   0.000
 -0.002   0.000   0.000  -0.008  -0.000  -0.000   0.004   0.000
  0.000  -0.000  -0.000  -0.000  -0.006   0.000  -0.000   0.004
  0.000  -0.000  -0.002  -0.000   0.000   0.001   0.000  -0.000
 -0.000   0.000  -0.000   0.000  -0.000   0.000  -0.000   0.000
 pseudopotential strength for first ion, spin component:           2
-21.821   1.561   0.000   0.001  -0.000   0.000   0.001  -0.000
  1.561  -5.675  -0.000  -0.002   0.000   0.000   0.001  -0.000
  0.000  -0.000 -20.766  -0.000  -0.000   7.600   0.000   0.000
  0.001  -0.002  -0.000 -20.767  -0.000   0.000   7.609   0.000
 -0.000   0.000  -0.000  -0.000 -20.766   0.000   0.000   7.600
  0.000   0.000   7.600   0.000   0.000   5.137  -0.000  -0.000
  0.001   0.001   0.000   7.609   0.000  -0.000   5.131  -0.000
 -0.000  -0.000   0.000   0.000   7.600  -0.000  -0.000   5.137
 -0.000  -0.000   0.000   0.000  -0.000  -0.000  -0.000  -0.000
 -0.000  -0.000   0.000   0.000   0.000   0.001  -0.000  -0.000
  0.001  -0.003   0.000  -0.000  -0.000  -0.000   0.001   0.000
 -0.000  -0.000   0.000  -0.000   0.000  -0.000   0.000   0.001
  0.000   0.000  -0.000  -0.000   0.000  -0.000   0.000  -0.000
  0.000   0.000  -0.000  -0.000   0.000   0.000   0.000  -0.000
  0.000   0.000  -0.000  -0.000  -0.000  -0.001   0.000   0.000
 -0.001   0.005  -0.000   0.000   0.000   0.000  -0.001  -0.000
  0.000   0.000  -0.000   0.000  -0.000   0.000  -0.000  -0.001
 -0.000  -0.000   0.000   0.000  -0.000  -0.000  -0.000   0.000
 -0.002   0.001   0.000  -0.002  -0.000  -0.000   0.001   0.000
  0.000  -0.000  -0.000  -0.000  -0.002   0.000   0.000   0.001
  0.000  -0.000  -0.006  -0.000   0.000   0.004   0.000  -0.000
  0.001   0.000  -0.000  -0.014   0.000   0.000   0.008  -0.000
 -0.000   0.000   0.000   0.000  -0.006  -0.000   0.000   0.004
 -0.000   0.000  -0.002   0.000  -0.000   0.001  -0.000   0.000
 -0.000   0.000   0.000   0.000   0.000  -0.000  -0.000  -0.000
 -0.002   0.001   0.000  -0.002  -0.000  -0.000   0.001   0.000
  0.000  -0.000  -0.000  -0.000  -0.002   0.000   0.000   0.001
  0.000  -0.000  -0.006  -0.000   0.000   0.003   0.000  -0.000
  0.001   0.000  -0.000  -0.013   0.000   0.000   0.008  -0.000
 -0.000   0.000   0.000   0.000  -0.006  -0.000   0.000   0.003
 -0.000   0.000  -0.002   0.000  -0.000   0.001  -0.000   0.000
 -0.000   0.000   0.000   0.000   0.000  -0.000  -0.000  -0.000
 total augmentation occupancy for first ion, spin component:           1
  2.003   0.007   0.000   0.000   0.000   0.000   0.000  -0.000   0.000   0.000   0.001   0.000  -0.000  -0.000  -0.000  -0.001
  0.007   0.726  -0.000   0.008   0.000  -0.000  -0.008   0.000   0.000   0.000   0.038   0.000  -0.000   0.000   0.000   0.003
  0.000   0.000   2.007   0.000  -0.000  -0.003   0.000   0.000  -0.000   0.004   0.000  -0.000  -0.020  -0.000   0.001   0.000
  0.000   0.008  -0.000   2.008   0.000   0.000  -0.004   0.000   0.000   0.000   0.001  -0.000  -0.000   0.000  -0.000   0.000
  0.000  -0.000  -0.000   0.000   2.007   0.000  -0.000  -0.003  -0.020  -0.000  -0.000   0.004   0.000  -0.002  -0.000  -0.000
  0.000   0.000  -0.003   0.000   0.000   0.030   0.000  -0.000   0.000  -0.002  -0.000   0.000   0.030   0.000  -0.000  -0.000
  0.000  -0.008  -0.000  -0.004  -0.000   0.000   0.034   0.000   0.000  -0.000   0.002   0.000  -0.000   0.000  -0.000   0.000
 -0.000   0.000   0.000  -0.000  -0.003  -0.000  -0.000   0.030   0.030   0.000   0.000  -0.002  -0.000   0.004   0.000   0.000
  0.000   0.000  -0.000   0.000  -0.020   0.000   0.000   0.030   0.396  -0.000   0.000  -0.027   0.000   0.049  -0.000   0.000
  0.000   0.000   0.004   0.000  -0.000  -0.002  -0.000   0.000  -0.000   0.396   0.000  -0.000  -0.027  -0.000   0.055   0.000
  0.001   0.038   0.000   0.001  -0.000  -0.000   0.002   0.000   0.000   0.000   0.306  -0.000  -0.000   0.000   0.000   0.035
 -0.000   0.000  -0.000  -0.000   0.004   0.000   0.000  -0.002  -0.027  -0.000  -0.000   0.396   0.000  -0.005  -0.000  -0.000
 -0.000  -0.000  -0.020  -0.000   0.000   0.030  -0.000  -0.000   0.000  -0.027  -0.000   0.000   0.396   0.000  -0.005  -0.000
 -0.000   0.000  -0.000   0.000  -0.002   0.000   0.000   0.004   0.049  -0.000   0.000  -0.005   0.000   0.007  -0.000   0.000
 -0.000   0.000   0.001   0.000  -0.000  -0.000   0.000   0.000  -0.000   0.055   0.000  -0.000  -0.005  -0.000   0.009   0.000
 -0.001   0.003   0.000   0.000  -0.000  -0.000   0.000   0.000   0.000   0.000   0.035  -0.000  -0.000   0.000   0.000   0.005
  0.000  -0.000  -0.000  -0.000   0.001   0.000   0.000  -0.000  -0.005  -0.000  -0.000   0.055   0.000  -0.001  -0.000  -0.000
  0.000  -0.000  -0.002  -0.000   0.000   0.004  -0.000  -0.000   0.000  -0.005  -0.000   0.000   0.049   0.000  -0.001  -0.000
 -0.000  -0.150   0.000   0.000  -0.000   0.000   0.002  -0.000   0.000  -0.000   0.110   0.000  -0.000   0.000  -0.000   0.013
  0.000  -0.000  -0.000  -0.000  -0.006   0.000   0.000   0.010  -0.020  -0.000  -0.000  -0.075  -0.000  -0.000  -0.000  -0.000
  0.000   0.000  -0.001  -0.000   0.000  -0.025  -0.000   0.000   0.000   0.007  -0.000  -0.000   0.037   0.000   0.001  -0.000
  0.000  -0.015   0.000  -0.032  -0.000  -0.000   0.045   0.000  -0.000   0.000  -0.011  -0.000   0.000  -0.000   0.000  -0.001
 -0.000  -0.000   0.000   0.000  -0.001   0.000   0.000  -0.025   0.037  -0.000   0.000   0.007  -0.000   0.004  -0.000   0.000
 -0.000   0.000  -0.006   0.000   0.000   0.010  -0.000  -0.000  -0.000  -0.075   0.000   0.000  -0.020   0.000  -0.009   0.000
  0.000   0.000   0.000  -0.000   0.000   0.000  -0.000   0.000  -0.000  -0.000  -0.000  -0.000  -0.000  -0.000  -0.000  -0.000
 -0.000   0.158  -0.000   0.000   0.000  -0.000  -0.002   0.000  -0.000   0.000  -0.119  -0.000   0.000  -0.000   0.000  -0.015
 -0.000   0.000   0.000   0.000   0.007  -0.000  -0.000  -0.011   0.024   0.000   0.000   0.083  -0.000   0.001   0.000   0.000
  0.000  -0.000   0.001  -0.000  -0.000   0.027   0.000  -0.000  -0.000  -0.006   0.000   0.000  -0.040  -0.000  -0.001   0.000
 -0.001   0.017  -0.000   0.037   0.000   0.000  -0.047  -0.000   0.000  -0.000   0.013   0.000  -0.000   0.000  -0.000   0.001
 -0.000   0.000  -0.000   0.000   0.001  -0.000  -0.000   0.027  -0.040   0.000  -0.000  -0.006   0.000  -0.005   0.000  -0.000
  0.000  -0.000   0.007  -0.000  -0.000  -0.011   0.000   0.000   0.000   0.083  -0.000  -0.000   0.024  -0.000   0.011  -0.000
  0.000  -0.000  -0.000  -0.000  -0.000  -0.000   0.000  -0.000   0.000   0.000   0.000   0.000   0.000   0.000   0.000   0.000
 total augmentation occupancy for first ion, spin component:           2
 -0.031  -0.126   0.000   0.000   0.000  -0.000  -0.000   0.000   0.000  -0.000   0.001  -0.000  -0.000   0.000   0.000   0.000
 -0.126   0.137   0.000   0.000  -0.000   0.000  -0.002  -0.000   0.000   0.000   0.012   0.000  -0.000  -0.000   0.000  -0.000
 -0.000   0.000  -0.011   0.000   0.000  -0.047   0.000   0.000   0.000  -0.000  -0.000   0.000   0.000   0.000  -0.000  -0.000
  0.000   0.000   0.000  -0.012  -0.000  -0.000  -0.047   0.000   0.000   0.000   0.000   0.000  -0.000  -0.000  -0.000  -0.000
 -0.000  -0.000   0.000  -0.000  -0.011   0.000   0.000  -0.047   0.000   0.000   0.000  -0.000  -0.000   0.000   0.000   0.000
  0.000   0.000  -0.047   0.000   0.000   0.003   0.000  -0.000   0.000  -0.000  -0.000   0.000   0.003  -0.000   0.000   0.000
 -0.000  -0.002   0.000  -0.047   0.000   0.000   0.003  -0.000  -0.000  -0.000  -0.001   0.000   0.000  -0.000   0.000  -0.000
  0.000   0.000   0.000   0.000  -0.047  -0.000  -0.000   0.003   0.003   0.000   0.000  -0.000  -0.000  -0.000  -0.000  -0.000
  0.000   0.000   0.000   0.000   0.000   0.000  -0.000   0.003   0.036   0.000   0.000   0.004  -0.000  -0.008   0.000  -0.000
  0.000   0.000  -0.000   0.000   0.000  -0.000  -0.000   0.000   0.000   0.034  -0.000  -0.000   0.004   0.000  -0.007  -0.000
  0.001   0.012  -0.000   0.000   0.000  -0.000  -0.001   0.000   0.000  -0.000   0.036   0.000  -0.000  -0.000  -0.000  -0.006
 -0.000  -0.000   0.000   0.000  -0.000   0.000   0.000  -0.000   0.004  -0.000   0.000   0.034  -0.000   0.001   0.000   0.000
 -0.000  -0.000   0.000  -0.000  -0.000   0.003   0.000  -0.000   0.000   0.004  -0.000  -0.000   0.036  -0.000   0.001   0.000
  0.000  -0.000   0.000  -0.000   0.000  -0.000  -0.000  -0.000  -0.008   0.000  -0.000   0.001   0.000  -0.002   0.000  -0.000
 -0.000   0.000  -0.000  -0.000   0.000   0.000  -0.000  -0.000   0.000  -0.007  -0.000   0.000   0.001   0.000  -0.002  -0.000
  0.000  -0.000  -0.000  -0.000   0.000   0.000  -0.000  -0.000  -0.000  -0.000  -0.006   0.000   0.000  -0.000  -0.000  -0.002
  0.000   0.000   0.000   0.000  -0.000  -0.000  -0.000   0.000   0.001   0.000   0.000  -0.007  -0.000   0.000   0.000   0.000
 -0.000   0.000   0.000   0.000  -0.000  -0.000   0.000   0.000  -0.000   0.001   0.000  -0.000  -0.008  -0.000   0.000   0.000
 -0.002  -0.062  -0.000  -0.000   0.000   0.000  -0.001  -0.000   0.000  -0.000   0.041   0.000  -0.000   0.000  -0.000   0.002
 -0.000  -0.000  -0.000  -0.000  -0.003   0.000   0.000   0.004  -0.009  -0.000  -0.000  -0.033   0.000   0.001  -0.000   0.000
  0.000   0.000   0.002   0.000  -0.000  -0.010   0.000   0.000   0.000   0.004  -0.000  -0.000   0.014   0.000   0.000  -0.000
 -0.000  -0.007   0.000  -0.013  -0.000  -0.000   0.020   0.000  -0.000   0.000  -0.004  -0.000   0.000   0.000   0.000   0.000
 -0.000  -0.000  -0.000  -0.000   0.002   0.000  -0.000  -0.010   0.014  -0.000   0.000   0.004  -0.000   0.001  -0.000   0.000
  0.000   0.000  -0.003   0.000   0.000   0.004  -0.000  -0.000   0.000  -0.033   0.000   0.000  -0.009  -0.000  -0.002  -0.000
  0.000   0.000  -0.000   0.000  -0.000   0.000   0.000   0.000  -0.000  -0.000  -0.000  -0.000  -0.000  -0.000  -0.000  -0.000
  0.002   0.055   0.000   0.000  -0.000  -0.000   0.001   0.000  -0.000   0.000  -0.030  -0.000   0.000  -0.000   0.000  -0.001
  0.000   0.000   0.000   0.000   0.003  -0.000  -0.000  -0.003   0.007   0.000   0.000   0.029  -0.000  -0.001   0.000  -0.000
 -0.000  -0.000  -0.002  -0.000   0.000   0.008  -0.000  -0.000  -0.000  -0.002   0.000   0.000  -0.009  -0.000  -0.000   0.000
  0.000   0.005  -0.000   0.010   0.000   0.000  -0.017  -0.000   0.000  -0.000   0.003   0.000  -0.000  -0.000  -0.000  -0.000
  0.000   0.000   0.000   0.000  -0.002  -0.000   0.000   0.008  -0.009   0.000  -0.000  -0.002   0.000  -0.000   0.000  -0.000
 -0.000  -0.000   0.003  -0.000  -0.000  -0.003   0.000   0.000   0.000   0.029  -0.000  -0.000   0.007   0.000   0.002   0.000
 -0.000  -0.000   0.000  -0.000   0.000  -0.000  -0.000  -0.000   0.000   0.000   0.000   0.000   0.000   0.000   0.000   0.000


------------------------ aborting loop because EDIFF is reached ----------------------------------------


 


 total charge     
 
# of ion       s       p       d       f       tot
--------------------------------------------------
    1        2.155   5.969   0.909   7.053  16.087
    2        2.155   5.969   0.909   7.053  16.087
    3        0.671   0.491   8.642   0.000   9.804
    4        0.671   0.491   8.642   0.000   9.804
    5        1.124   1.233   0.060   0.000   2.417
    6        1.124   1.233   0.060   0.000   2.417
--------------------------------------------------
tot          7.901  15.385  19.222  14.107  56.615

 


 magnetization (x)
 
# of ion       s       p       d       f       tot
--------------------------------------------------
    1        0.009  -0.016   0.137   6.977   7.107
    2       -0.009   0.016  -0.137  -6.977  -7.107
    3        0.005   0.008  -0.009   0.000   0.004
    4       -0.005  -0.008   0.009   0.000  -0.004
    5       -0.007   0.003   0.000   0.000  -0.003
    6        0.007  -0.003  -0.000   0.000   0.003
--------------------------------------------------
tot          0.000  -0.000   0.000  -0.000   0.000

 
    CHARGE:  cpu time    1.0699: real time    1.0737
    FORLOC:  cpu time    0.0003: real time    0.0003
    FORNL :  cpu time    6.9985: real time    7.0232
    STRESS:  cpu time    7.8648: real time    7.9059
    FORCOR:  cpu time    0.0094: real time    0.0094
    FORHAR:  cpu time    0.0012: real time    0.0013
    MIXING:  cpu time    0.0014: real time    0.0014
    OFIELD:  cpu time    0.0000: real time    0.0000

  FORCE on cell =-STRESS in cart. coord.  units (eV):
  Direction    XX          YY          ZZ          XY          YZ          ZX
  --------------------------------------------------------------------------------------
  Alpha Z   493.62807   493.62807   493.62807
  Ewald   -2117.97557 -2117.97548 -2020.36196     0.00000     0.00000    -0.00000
  Hartree   619.52922   619.52925   755.88080    -0.00000     0.00000    -0.00000
  E(xc)    -326.50266  -326.50267  -326.65616    -0.00001    -0.00000    -0.00000
  Local     473.33922   473.33906   227.28095    -0.00004    -0.00000    -0.00000
  n-local  -131.59343  -133.56804  -135.00146     0.38555    -0.00000     0.42698
  augment   231.09434   231.09435   234.07328     0.00001    -0.00000     0.00000
  Kinetic   760.38021   766.42423   773.29835    -0.18803    -0.00000    -0.53918
  Fock        0.00000     0.00000     0.00000     0.00000     0.00000     0.00000
  -------------------------------------------------------------------------------------
  Total       3.93409     3.93409     2.14188    -0.00000     0.00000     0.00000
  in kB      50.04352    50.04352    27.24570    -0.00000     0.00000     0.00000
  external pressure =       42.44 kB  Pullay stress =        0.00 kB


 VOLUME and BASIS-vectors are now :
 -----------------------------------------------------------------------------
  energy-cutoff  :      600.00
  volume of cell :      125.95
      direct lattice vectors                 reciprocal lattice vectors
     4.427989960  0.000000000  0.000000000     0.225836104  0.130386535  0.000000000
    -2.213994980  3.834751793  0.000000000     0.000000000  0.260773071  0.000000000
     0.000000000  0.000000000  7.417600155     0.000000000  0.000000000  0.134814492

  length of vectors
     4.427989960  4.427989960  7.417600155     0.260773071  0.260773071  0.134814492


 FORCES acting on ions
    electron-ion (+dipol)            ewald-force                    non-local-force                 convergence-correction
 -----------------------------------------------------------------------------------------------
   0.122E-06 -.255E-05 -.235E+02   -.583E-06 0.126E-04 0.229E+02   0.347E-17 0.347E-17 0.765E+00   0.627E-10 -.101E-08 0.174E-04
   0.125E-06 -.462E-06 -.235E+02   -.578E-06 0.143E-05 0.229E+02   -.607E-17 -.520E-17 0.765E+00   0.693E-10 -.594E-09 0.176E-04
   0.932E-06 -.242E-04 0.307E+02   0.427E-06 -.305E-04 -.310E+02   0.139E-16 -.347E-17 0.401E+00   -.231E-10 0.230E-08 0.118E-04
   0.153E-06 0.119E-04 0.307E+02   0.419E-06 0.202E-04 -.310E+02   -.139E-16 0.347E-17 0.401E+00   -.311E-10 -.165E-08 0.972E-05
   0.225E-07 0.325E-05 -.990E+01   0.157E-06 -.178E-04 0.806E+01   -.520E-17 -.694E-17 0.159E+01   -.342E-11 0.410E-09 -.529E-05
   0.535E-07 -.346E-05 -.990E+01   0.157E-06 0.140E-04 0.806E+01   0.304E-17 0.173E-16 0.159E+01   -.253E-11 -.338E-09 -.463E-05
 -----------------------------------------------------------------------------------------------
   0.141E-05 -.155E-04 -.551E+01   -.944E-14 -.284E-14 0.000E+00   -.477E-17 0.867E-17 0.551E+01   0.717E-10 -.869E-09 0.467E-04
 
 
 POSITION                                       TOTAL-FORCE (eV/Angst)
 -----------------------------------------------------------------------------------
      0.00000      0.00000      0.00000         0.000000      0.000000      0.134310
      0.00000      0.00000      3.70880         0.000000     -0.000000      0.134310
      2.21399      1.27825      5.78335         0.000000      0.000000      0.121701
     -0.00000      2.55650      2.07455        -0.000000     -0.000000      0.121701
      2.21399      1.27825      1.56808         0.000000     -0.000000     -0.256011
     -0.00000      2.55650      5.27688        -0.000000      0.000000     -0.256011
 -----------------------------------------------------------------------------------
    total drift:                                0.000001     -0.000015     -0.000255


--------------------------------------------------------------------------------------------------------



  FREE ENERGIE OF THE ION-ELECTRON SYSTEM (eV)
  ---------------------------------------------------
  free  energy   TOTEN  =       -47.26727817 eV

  energy  without entropy=      -47.21611803  energy(sigma->0) =      -47.24169810
 


--------------------------------------------------------------------------------------------------------


    POTLOK:  cpu time    0.0145: real time    0.0146


--------------------------------------------------------------------------------------------------------


     LOOP+:  cpu time 4192.6949: real time 4402.1906
    4ORBIT:  cpu time    0.0000: real time    0.0000
 


 total charge     
 
# of ion       s       p       d       f       tot
--------------------------------------------------
    1        2.155   5.969   0.909   7.053  16.087
    2        2.155   5.969   0.909   7.053  16.087
    3        0.671   0.491   8.642   0.000   9.804
    4        0.671   0.491   8.642   0.000   9.804
    5        1.124   1.233   0.060   0.000   2.417
    6        1.124   1.233   0.060   0.000   2.417
--------------------------------------------------
tot          7.901  15.385  19.222  14.107  56.615

 


 magnetization (x)
 
# of ion       s       p       d       f       tot
--------------------------------------------------
    1        0.009  -0.016   0.137   6.977   7.107
    2       -0.009   0.016  -0.137  -6.977  -7.107
    3        0.005   0.008  -0.009   0.000   0.004
    4       -0.005  -0.008   0.009   0.000  -0.004
    5       -0.007   0.003   0.000   0.000  -0.003
    6        0.007  -0.003  -0.000   0.000   0.003
--------------------------------------------------
tot          0.000  -0.000   0.000  -0.000   0.000

 

 total amount of memory used by VASP MPI-rank0   405434. kBytes
=======================================================================

   base      :      30000. kBytes
   nonl-proj :     256852. kBytes
   fftplans  :        461. kBytes
   grid      :       1287. kBytes
   one-center:         98. kBytes
   wavefun   :     116736. kBytes
 
  
  
 General timing and accounting informations for this job:
 ========================================================
  
                  Total CPU time used (sec):     4233.871
                            User time (sec):     4227.398
                          System time (sec):        6.472
                         Elapsed time (sec):     4443.622
  
                   Maximum memory used (kb):      539892.
                   Average memory used (kb):           0.
  
                          Minor page faults:        90931
                          Major page faults:           27
                 Voluntary context switches:          381
